 Entering Gaussian System, Link 0=/home/eliot/software/g09E01/g09
 Initial command:
 /home/eliot/software/g09E01/l1.exe "/tmp/Gau-9457.inp" -scrdir="/tmp/"
 Entering Link 1 = /home/eliot/software/g09E01/l1.exe PID=      9459.
  
 Copyright (c) 1988,1990,1992,1993,1995,1998,2003,2009,2015,
            Gaussian, Inc.  All Rights Reserved.
  
 This is part of the Gaussian(R) 09 program.  It is based on
 the Gaussian(R) 03 system (copyright 2003, Gaussian, Inc.),
 the Gaussian(R) 98 system (copyright 1998, Gaussian, Inc.),
 the Gaussian(R) 94 system (copyright 1995, Gaussian, Inc.),
 the Gaussian 92(TM) system (copyright 1992, Gaussian, Inc.),
 the Gaussian 90(TM) system (copyright 1990, Gaussian, Inc.),
 the Gaussian 88(TM) system (copyright 1988, Gaussian, Inc.),
 the Gaussian 86(TM) system (copyright 1986, Carnegie Mellon
 University), and the Gaussian 82(TM) system (copyright 1983,
 Carnegie Mellon University). Gaussian is a federally registered
 trademark of Gaussian, Inc.
  
 This software contains proprietary and confidential information,
 including trade secrets, belonging to Gaussian, Inc.
  
 This software is provided under written license and may be
 used, copied, transmitted, or stored only in accord with that
 written license.
  
 The following legend is applicable only to US Government
 contracts under FAR:
  
                    RESTRICTED RIGHTS LEGEND
  
 Use, reproduction and disclosure by the US Government is
 subject to restrictions as set forth in subparagraphs (a)
 and (c) of the Commercial Computer Software - Restricted
 Rights clause in FAR 52.227-19.
  
 Gaussian, Inc.
 340 Quinnipiac St., Bldg. 40, Wallingford CT 06492
  
  
 ---------------------------------------------------------------
 Warning -- This program may not be used in any manner that
 competes with the business of Gaussian, Inc. or will provide
 assistance to any competitor of Gaussian, Inc.  The licensee
 of this program is prohibited from giving any competitor of
 Gaussian, Inc. access to this program.  By using this program,
 the user acknowledges that Gaussian, Inc. is engaged in the
 business of creating and licensing software in the field of
 computational chemistry and represents and warrants to the
 licensee that it is not a competitor of Gaussian, Inc. and that
 it will not use this program in any manner prohibited above.
 ---------------------------------------------------------------
  

 Cite this work as:
 Gaussian 09, Revision E.01,
 M. J. Frisch, G. W. Trucks, H. B. Schlegel, G. E. Scuseria, 
 M. A. Robb, J. R. Cheeseman, G. Scalmani, V. Barone, B. Mennucci, 
 G. A. Petersson, H. Nakatsuji, M. Caricato, X. Li, H. P. Hratchian, 
 A. F. Izmaylov, J. Bloino, G. Zheng, J. L. Sonnenberg, M. Hada, 
 M. Ehara, K. Toyota, R. Fukuda, J. Hasegawa, M. Ishida, T. Nakajima, 
 Y. Honda, O. Kitao, H. Nakai, T. Vreven, J. A. Montgomery, Jr., 
 J. E. Peralta, F. Ogliaro, M. Bearpark, J. J. Heyd, E. Brothers, 
 K. N. Kudin, V. N. Staroverov, T. Keith, R. Kobayashi, J. Normand, 
 K. Raghavachari, A. Rendell, J. C. Burant, S. S. Iyengar, J. Tomasi, 
 M. Cossi, N. Rega, J. M. Millam, M. Klene, J. E. Knox, J. B. Cross, 
 V. Bakken, C. Adamo, J. Jaramillo, R. Gomperts, R. E. Stratmann, 
 O. Yazyev, A. J. Austin, R. Cammi, C. Pomelli, J. W. Ochterski, 
 R. L. Martin, K. Morokuma, V. G. Zakrzewski, G. A. Voth, 
 P. Salvador, J. J. Dannenberg, S. Dapprich, A. D. Daniels, 
 O. Farkas, J. B. Foresman, J. V. Ortiz, J. Cioslowski, 
 and D. J. Fox, Gaussian, Inc., Wallingford CT, 2013.
 
 ******************************************
 Gaussian 09:  ES64L-G09RevE.01 30-Nov-2015
                 2-Oct-2018 
 ******************************************
 %nproc=4
 Will use up to    4 processors via shared memory.
 ----------------------------
 # b3lyp/svp opt=modredundant
 ----------------------------
 1/14=-1,18=120,19=15,26=3,38=1/1,3;
 2/9=110,12=2,17=6,18=5,40=1/2;
 3/5=18,7=101,11=2,16=1,25=1,30=1,71=1,74=-5/1,2,3;
 4//1;
 5/5=2,38=5/2;
 6/7=2,8=2,9=2,10=2,28=1/1;
 7//1,2,3,16;
 1/14=-1,18=20,19=15,26=3/3(2);
 2/9=110/2;
 99//99;
 2/9=110/2;
 3/5=18,7=101,11=2,16=1,25=1,30=1,71=1,74=-5/1,2,3;
 4/5=5,16=3,69=1/1;
 5/5=2,38=5/2;
 7//1,2,3,16;
 1/14=-1,18=20,19=15,26=3/3(-5);
 2/9=110/2;
 6/7=2,8=2,9=2,10=2,19=2,28=1/1;
 99/9=1/99;
 -------------------
 Title Card Required
 -------------------
 Symbolic Z-matrix:
 Charge =  0 Multiplicity = 1
 C                     0.0846    0.09851  -0.2183 
 C                     0.03519  -0.15879   1.11543 
 C                     1.23178   0.22646   1.9934 
 C                     2.32888   0.95442   1.44767 
 C                     2.40224   1.11706  -0.0787 
 C                     1.33486   0.76513  -0.84806 
 H                    -0.74642  -0.16272  -0.83965 
 H                    -0.82836  -0.61993   1.54732 
 H                     3.29016   1.50122  -0.53578 
 H                     1.36206   0.94533  -1.90243 
 O                     2.58046  -0.47978   1.94926 
 H                     2.73519   1.82053   1.92691 
 H                     0.87563   0.47004   2.97254 
 
 The following ModRedundant input section has been read:
 B       3       4 S  10 0.1000                                                
 

 GradGradGradGradGradGradGradGradGradGradGradGradGradGradGradGradGradGrad
 Berny optimization.
 Initialization pass.
                           ----------------------------
                           !    Initial Parameters    !
                           ! (Angstroms and Degrees)  !
 --------------------------                            --------------------------
 ! Name  Definition              Value          Derivative Info.                !
 --------------------------------------------------------------------------------
 ! R1    R(1,2)                  1.3592         estimate D2E/DX2                !
 ! R2    R(1,6)                  1.5505         estimate D2E/DX2                !
 ! R3    R(1,7)                  1.07           estimate D2E/DX2                !
 ! R4    R(2,3)                  1.5333         estimate D2E/DX2                !
 ! R5    R(2,8)                  1.07           estimate D2E/DX2                !
 ! R6    R(3,4)                  1.4253         Scan                            !
 ! R7    R(3,11)                 1.523          estimate D2E/DX2                !
 ! R8    R(3,13)                 1.07           estimate D2E/DX2                !
 ! R9    R(4,5)                  1.5368         estimate D2E/DX2                !
 ! R10   R(4,11)                 1.5401         estimate D2E/DX2                !
 ! R11   R(4,12)                 1.07           estimate D2E/DX2                !
 ! R12   R(5,6)                  1.362          estimate D2E/DX2                !
 ! R13   R(5,9)                  1.07           estimate D2E/DX2                !
 ! R14   R(6,10)                 1.07           estimate D2E/DX2                !
 ! A1    A(2,1,6)              120.6126         estimate D2E/DX2                !
 ! A2    A(2,1,7)              119.6936         estimate D2E/DX2                !
 ! A3    A(6,1,7)              119.6937         estimate D2E/DX2                !
 ! A4    A(1,2,3)              119.0733         estimate D2E/DX2                !
 ! A5    A(1,2,8)              120.4625         estimate D2E/DX2                !
 ! A6    A(3,2,8)              120.4637         estimate D2E/DX2                !
 ! A7    A(2,3,4)              120.6501         estimate D2E/DX2                !
 ! A8    A(2,3,11)             123.9144         estimate D2E/DX2                !
 ! A9    A(2,3,13)             108.7484         estimate D2E/DX2                !
 ! A10   A(4,3,13)             119.3619         estimate D2E/DX2                !
 ! A11   A(11,3,13)            115.2661         estimate D2E/DX2                !
 ! A12   A(3,4,5)              118.1061         estimate D2E/DX2                !
 ! A13   A(3,4,12)             122.2922         estimate D2E/DX2                !
 ! A14   A(5,4,11)             114.4721         estimate D2E/DX2                !
 ! A15   A(5,4,12)             109.9417         estimate D2E/DX2                !
 ! A16   A(11,4,12)            123.086          estimate D2E/DX2                !
 ! A17   A(4,5,6)              119.7552         estimate D2E/DX2                !
 ! A18   A(4,5,9)              120.1255         estimate D2E/DX2                !
 ! A19   A(6,5,9)              120.1187         estimate D2E/DX2                !
 ! A20   A(1,6,5)              120.9028         estimate D2E/DX2                !
 ! A21   A(1,6,10)             119.5458         estimate D2E/DX2                !
 ! A22   A(5,6,10)             119.5502         estimate D2E/DX2                !
 ! D1    D(6,1,2,3)              0.3286         estimate D2E/DX2                !
 ! D2    D(6,1,2,8)           -179.9299         estimate D2E/DX2                !
 ! D3    D(7,1,2,3)           -179.7621         estimate D2E/DX2                !
 ! D4    D(7,1,2,8)             -0.0206         estimate D2E/DX2                !
 ! D5    D(2,1,6,5)             -0.5947         estimate D2E/DX2                !
 ! D6    D(2,1,6,10)           179.004          estimate D2E/DX2                !
 ! D7    D(7,1,6,5)            179.496          estimate D2E/DX2                !
 ! D8    D(7,1,6,10)            -0.9053         estimate D2E/DX2                !
 ! D9    D(1,2,3,4)              5.7609         estimate D2E/DX2                !
 ! D10   D(1,2,3,11)           -70.3444         estimate D2E/DX2                !
 ! D11   D(1,2,3,13)           149.1803         estimate D2E/DX2                !
 ! D12   D(8,2,3,4)           -173.9807         estimate D2E/DX2                !
 ! D13   D(8,2,3,11)           109.9141         estimate D2E/DX2                !
 ! D14   D(8,2,3,13)           -30.5612         estimate D2E/DX2                !
 ! D15   D(2,3,4,5)            -10.9456         estimate D2E/DX2                !
 ! D16   D(2,3,4,12)           131.7039         estimate D2E/DX2                !
 ! D17   D(13,3,4,5)          -150.5915         estimate D2E/DX2                !
 ! D18   D(13,3,4,12)           -7.9421         estimate D2E/DX2                !
 ! D19   D(3,4,5,6)             10.59           estimate D2E/DX2                !
 ! D20   D(3,4,5,9)           -169.1353         estimate D2E/DX2                !
 ! D21   D(11,4,5,6)            80.2199         estimate D2E/DX2                !
 ! D22   D(11,4,5,9)           -99.5054         estimate D2E/DX2                !
 ! D23   D(12,4,5,6)          -136.3465         estimate D2E/DX2                !
 ! D24   D(12,4,5,9)            43.9282         estimate D2E/DX2                !
 ! D25   D(4,5,6,1)             -4.8068         estimate D2E/DX2                !
 ! D26   D(4,5,6,10)           175.5945         estimate D2E/DX2                !
 ! D27   D(9,5,6,1)            174.9185         estimate D2E/DX2                !
 ! D28   D(9,5,6,10)            -4.6802         estimate D2E/DX2                !
 --------------------------------------------------------------------------------
 Trust Radius=3.00D-01 FncErr=1.00D-07 GrdErr=1.00D-06
 Number of optimizations in scan=  11
 Number of steps in this run=     74 maximum allowed number of steps=    100.
 GradGradGradGradGradGradGradGradGradGradGradGradGradGradGradGradGradGrad

                          Input orientation:                          
 ---------------------------------------------------------------------
 Center     Atomic      Atomic             Coordinates (Angstroms)
 Number     Number       Type             X           Y           Z
 ---------------------------------------------------------------------
      1          6           0        0.084598    0.098505   -0.218304
      2          6           0        0.035194   -0.158790    1.115435
      3          6           0        1.231778    0.226457    1.993396
      4          6           0        2.328875    0.954422    1.447671
      5          6           0        2.402236    1.117060   -0.078703
      6          6           0        1.334865    0.765131   -0.848059
      7          1           0       -0.746425   -0.162716   -0.839646
      8          1           0       -0.828360   -0.619933    1.547317
      9          1           0        3.290158    1.501218   -0.535780
     10          1           0        1.362060    0.945329   -1.902426
     11          8           0        2.580458   -0.479777    1.949263
     12          1           0        2.735187    1.820530    1.926907
     13          1           0        0.875626    0.470039    2.972541
 ---------------------------------------------------------------------
                    Distance matrix (angstroms):
                    1          2          3          4          5
     1  C    0.000000
     2  C    1.359228   0.000000
     3  C    2.494797   1.533311   0.000000
     4  C    2.923157   2.571108   1.425262   0.000000
     5  C    2.535428   2.942218   2.541012   1.536766   0.000000
     6  C    1.550532   2.529443   2.893901   2.508837   1.362000
     7  H    1.070000   2.105537   3.477193   3.992153   3.482948
     8  H    2.113542   1.070000   2.271460   3.529399   4.012211
     9  H    3.513404   4.009604   3.501239   2.270931   1.070000
    10  H    2.277123   3.476656   3.963733   3.486827   2.106519
    11  O    3.355902   2.697530   1.523041   1.540070   2.587334
    12  H    3.820069   3.444729   2.192198   1.070000   2.151325
    13  H    3.308361   2.133212   1.070000   2.161432   3.472646
                    6          7          8          9         10
     6  C    0.000000
     7  H    2.278758   0.000000
     8  H    3.512231   2.431739   0.000000
     9  H    2.112466   4.376643   5.079445   0.000000
    10  H    1.070000   2.608251   4.375924   2.427817   0.000000
    11  O    3.305497   4.352780   3.435294   3.256294   4.283798
    12  H    3.282561   4.869158   4.335760   2.544559   4.161159
    13  H    3.859399   4.190966   2.474443   4.381964   4.922176
                   11         12         13
    11  O    0.000000
    12  H    2.305613   0.000000
    13  H    2.203565   2.524905   0.000000
 Stoichiometry    C6H6O
 Framework group  C1[X(C6H6O)]
 Deg. of freedom    33
 Full point group                 C1      NOp   1
 Largest Abelian subgroup         C1      NOp   1
 Largest concise Abelian subgroup C1      NOp   1
                         Standard orientation:                         
 ---------------------------------------------------------------------
 Center     Atomic      Atomic             Coordinates (Angstroms)
 Number     Number       Type             X           Y           Z
 ---------------------------------------------------------------------
      1          6           0        1.552980   -0.694500    0.099406
      2          6           0        0.447716   -1.461645   -0.093939
      3          6           0       -0.905905   -0.775979   -0.314425
      4          6           0       -0.990719    0.641270   -0.439261
      5          6           0        0.253919    1.474184   -0.094617
      6          6           0        1.449185    0.852543    0.105252
      7          1           0        2.503257   -1.162549    0.250413
      8          1           0        0.521919   -2.529066   -0.096402
      9          1           0        0.180909    2.538141   -0.007645
     10          1           0        2.327478    1.439656    0.274959
     11          8           0       -1.666387   -0.027505    0.772362
     12          1           0       -1.539519    1.113919   -1.226865
     13          1           0       -1.506006   -1.395298   -0.947847
 ---------------------------------------------------------------------
 Rotational constants (GHZ):      4.4374831      3.2374832      2.1215138
 Standard basis: SVP (5D, 7F)
 There are   135 symmetry adapted cartesian basis functions of A   symmetry.
 There are   128 symmetry adapted basis functions of A   symmetry.
   128 basis functions,   217 primitive gaussians,   135 cartesian basis functions
    25 alpha electrons       25 beta electrons
       nuclear repulsion energy       272.6167873366 Hartrees.
 NAtoms=   13 NActive=   13 NUniq=   13 SFac= 1.00D+00 NAtFMM=   60 NAOKFM=F Big=F
 Integral buffers will be    131072 words long.
 Raffenetti 2 integral format.
 Two-electron integral symmetry is turned on.
 One-electron integrals computed using PRISM.
 NBasis=   128 RedAO= T EigKep=  4.22D-04  NBF=   128
 NBsUse=   128 1.00D-06 EigRej= -1.00D+00 NBFU=   128
 ExpMin= 1.22D-01 ExpMax= 2.27D+03 ExpMxC= 3.41D+02 IAcc=1 IRadAn=         1 AccDes= 0.00D+00
 Harris functional with IExCor=  402 and IRadAn=       1 diagonalized for initial guess.
 HarFok:  IExCor=  402 AccDes= 0.00D+00 IRadAn=         1 IDoV= 1 UseB2=F ITyADJ=14
 ICtDFT=  3500011 ScaDFX=  1.000000  1.000000  1.000000  1.000000
 FoFCou: FMM=F IPFlag=           0 FMFlag=      100000 FMFlg1=           0
         NFxFlg=           0 DoJE=T BraDBF=F KetDBF=T FulRan=T
         wScrn=  0.000000 ICntrl=     500 IOpCl=  0 I1Cent=   200000004 NGrid=           0
         NMat0=    1 NMatS0=      1 NMatT0=    0 NMatD0=    1 NMtDS0=    0 NMtDT0=    0
 Petite list used in FoFCou.
 Requested convergence on RMS density matrix=1.00D-08 within 128 cycles.
 Requested convergence on MAX density matrix=1.00D-06.
 Requested convergence on             energy=1.00D-06.
 No special actions if energy rises.
 Integral accuracy reduced to 1.0D-05 until final iterations.
 Initial convergence to 1.0D-05 achieved.  Increase integral accuracy.
 SCF Done:  E(RB3LYP) =  -307.141526534     A.U. after   14 cycles
            NFock= 14  Conv=0.53D-08     -V/T= 2.0111

 **********************************************************************

            Population analysis using the SCF density.

 **********************************************************************

 Orbital symmetries:
       Occupied  (A) (A) (A) (A) (A) (A) (A) (A) (A) (A) (A) (A)
                 (A) (A) (A) (A) (A) (A) (A) (A) (A) (A) (A) (A)
                 (A)
       Virtual   (A) (A) (A) (A) (A) (A) (A) (A) (A) (A) (A) (A)
                 (A) (A) (A) (A) (A) (A) (A) (A) (A) (A) (A) (A)
                 (A) (A) (A) (A) (A) (A) (A) (A) (A) (A) (A) (A)
                 (A) (A) (A) (A) (A) (A) (A) (A) (A) (A) (A) (A)
                 (A) (A) (A) (A) (A) (A) (A) (A) (A) (A) (A) (A)
                 (A) (A) (A) (A) (A) (A) (A) (A) (A) (A) (A) (A)
                 (A) (A) (A) (A) (A) (A) (A) (A) (A) (A) (A) (A)
                 (A) (A) (A) (A) (A) (A) (A) (A) (A) (A) (A) (A)
                 (A) (A) (A) (A) (A) (A) (A)
 The electronic state is 1-A.
 Alpha  occ. eigenvalues --  -19.14341 -10.24662 -10.24477 -10.21041 -10.20948
 Alpha  occ. eigenvalues --  -10.20313 -10.20276  -1.01363  -0.81298  -0.74859
 Alpha  occ. eigenvalues --   -0.69825  -0.62244  -0.59809  -0.53196  -0.49116
 Alpha  occ. eigenvalues --   -0.47730  -0.45070  -0.43792  -0.38529  -0.37863
 Alpha  occ. eigenvalues --   -0.35299  -0.34610  -0.30448  -0.26873  -0.24171
 Alpha virt. eigenvalues --   -0.05976   0.02844   0.05990   0.09020   0.09363
 Alpha virt. eigenvalues --    0.10774   0.11996   0.12769   0.13787   0.15045
 Alpha virt. eigenvalues --    0.21245   0.22147   0.28932   0.29981   0.37054
 Alpha virt. eigenvalues --    0.38278   0.39625   0.42853   0.44987   0.45999
 Alpha virt. eigenvalues --    0.47698   0.48736   0.50111   0.52017   0.53537
 Alpha virt. eigenvalues --    0.54423   0.56410   0.58587   0.61965   0.63628
 Alpha virt. eigenvalues --    0.64137   0.66074   0.66399   0.66767   0.69006
 Alpha virt. eigenvalues --    0.69813   0.71618   0.75144   0.78465   0.80339
 Alpha virt. eigenvalues --    0.83465   0.85960   0.89052   0.96901   0.99594
 Alpha virt. eigenvalues --    1.12923   1.14292   1.20877   1.24623   1.26570
 Alpha virt. eigenvalues --    1.27518   1.32826   1.36655   1.44315   1.52539
 Alpha virt. eigenvalues --    1.56663   1.59561   1.64022   1.66054   1.67895
 Alpha virt. eigenvalues --    1.68888   1.72362   1.73328   1.75508   1.77239
 Alpha virt. eigenvalues --    1.78811   1.81339   1.91279   1.92839   1.93876
 Alpha virt. eigenvalues --    1.94170   1.97379   1.98915   2.01219   2.03552
 Alpha virt. eigenvalues --    2.07937   2.10365   2.11784   2.19601   2.21012
 Alpha virt. eigenvalues --    2.27507   2.29486   2.34541   2.36905   2.45274
 Alpha virt. eigenvalues --    2.48084   2.51451   2.54031   2.71476   2.74569
 Alpha virt. eigenvalues --    2.75991   2.77741   2.78138   2.79687   2.80574
 Alpha virt. eigenvalues --    2.85728   2.96676   3.05321   3.07267   3.13664
 Alpha virt. eigenvalues --    3.25820   3.28755   3.45317
          Condensed to atoms (all electrons):
               1          2          3          4          5          6
     1  C    4.999298   0.438021   0.059464  -0.093832   0.032121   0.223261
     2  C    0.438021   5.024900   0.208818   0.055285  -0.071707   0.040025
     3  C    0.059464   0.208818   4.990930   0.074255   0.026295  -0.088487
     4  C   -0.093832   0.055285   0.074255   5.050300   0.272612   0.043819
     5  C    0.032121  -0.071707   0.026295   0.272612   4.898439   0.493156
     6  C    0.223261   0.040025  -0.088487   0.043819   0.493156   4.955917
     7  H    0.427029  -0.060872   0.012375  -0.000971   0.011621  -0.064524
     8  H   -0.061477   0.434512  -0.065833   0.010453  -0.000947   0.011460
     9  H    0.011471  -0.001015   0.010570  -0.069130   0.431319  -0.053970
    10  H   -0.067725   0.012922  -0.001688   0.013457  -0.063678   0.430897
    11  O    0.004372  -0.034746   0.213758   0.170961  -0.015624  -0.005934
    12  H    0.002398  -0.001211  -0.007436   0.353841  -0.035967   0.005718
    13  H    0.010217  -0.054301   0.379712  -0.021724   0.003539   0.000912
               7          8          9         10         11         12
     1  C    0.427029  -0.061477   0.011471  -0.067725   0.004372   0.002398
     2  C   -0.060872   0.434512  -0.001015   0.012922  -0.034746  -0.001211
     3  C    0.012375  -0.065833   0.010570  -0.001688   0.213758  -0.007436
     4  C   -0.000971   0.010453  -0.069130   0.013457   0.170961   0.353841
     5  C    0.011621  -0.000947   0.431319  -0.063678  -0.015624  -0.035967
     6  C   -0.064524   0.011460  -0.053970   0.430897  -0.005934   0.005718
     7  H    0.710453  -0.015641  -0.000201  -0.008172  -0.000167   0.000001
     8  H   -0.015641   0.705584   0.000027  -0.000204   0.000547  -0.000205
     9  H   -0.000201   0.000027   0.698552  -0.016002   0.000607  -0.004982
    10  H   -0.008172  -0.000204  -0.016002   0.711497  -0.000275  -0.000508
    11  O   -0.000167   0.000547   0.000607  -0.000275   8.067441  -0.014078
    12  H    0.000001  -0.000205  -0.004982  -0.000508  -0.014078   0.690570
    13  H   -0.000506  -0.006903  -0.000249  -0.000002  -0.022489  -0.005851
              13
     1  C    0.010217
     2  C   -0.054301
     3  C    0.379712
     4  C   -0.021724
     5  C    0.003539
     6  C    0.000912
     7  H   -0.000506
     8  H   -0.006903
     9  H   -0.000249
    10  H   -0.000002
    11  O   -0.022489
    12  H   -0.005851
    13  H    0.710933
 Mulliken charges:
               1
     1  C    0.015381
     2  C    0.009370
     3  C    0.187267
     4  C    0.140674
     5  C    0.018822
     6  C    0.007749
     7  H   -0.010425
     8  H   -0.011372
     9  H   -0.006997
    10  H   -0.010518
    11  O   -0.364374
    12  H    0.017710
    13  H    0.006713
 Sum of Mulliken charges =   0.00000
 Mulliken charges with hydrogens summed into heavy atoms:
               1
     1  C    0.004956
     2  C   -0.002002
     3  C    0.193980
     4  C    0.158384
     5  C    0.011824
     6  C   -0.002768
    11  O   -0.364374
 Electronic spatial extent (au):  <R**2>=            611.5779
 Charge=              0.0000 electrons
 Dipole moment (field-independent basis, Debye):
    X=              1.6190    Y=             -0.0013    Z=             -1.8883  Tot=              2.4874
 Quadrupole moment (field-independent basis, Debye-Ang):
   XX=            -40.9880   YY=            -35.6430   ZZ=            -43.3899
   XY=             -0.1275   XZ=              4.4191   YZ=              0.1006
 Traceless Quadrupole moment (field-independent basis, Debye-Ang):
   XX=             -0.9810   YY=              4.3639   ZZ=             -3.3829
   XY=             -0.1275   XZ=              4.4191   YZ=              0.1006
 Octapole moment (field-independent basis, Debye-Ang**2):
  XXX=              7.1769  YYY=             -0.3302  ZZZ=              0.4788  XYY=             -2.1433
  XXY=              0.0434  XXZ=             -2.9514  XZZ=             -4.2586  YZZ=              0.1778
  YYZ=              0.1970  XYZ=              0.3232
 Hexadecapole moment (field-independent basis, Debye-Ang**3):
 XXXX=           -398.7027 YYYY=           -294.2003 ZZZZ=            -83.6244 XXXY=             -0.1849
 XXXZ=             10.3786 YYYX=             -0.3756 YYYZ=              2.0373 ZZZX=             -0.7593
 ZZZY=             -0.7760 XXYY=           -113.0761 XXZZ=            -84.7887 YYZZ=            -70.6812
 XXYZ=              0.0538 YYXZ=              2.4863 ZZXY=             -0.3019
 N-N= 2.726167873366D+02 E-N=-1.258910524574D+03  KE= 3.037792377382D+02
 Calling FoFJK, ICntrl=      2127 FMM=F ISym2X=0 I1Cent= 0 IOpClX= 0 NMat=1 NMatS=1 NMatT=0.
 ***** Axes restored to original set *****
 -------------------------------------------------------------------
 Center     Atomic                   Forces (Hartrees/Bohr)
 Number     Number              X              Y              Z
 -------------------------------------------------------------------
      1        6           0.044406196    0.019330938    0.008649745
      2        6           0.043011925    0.009539242   -0.019979759
      3        6          -0.023744037   -0.031079130   -0.013403003
      4        6           0.019094502   -0.025079253   -0.052683082
      5        6          -0.035477047   -0.018958688    0.019571231
      6        6          -0.017828515   -0.017560858    0.043082084
      7        1          -0.011500526   -0.001788570   -0.012787040
      8        1          -0.011720325   -0.006002712    0.009852963
      9        1           0.013371845    0.010768244   -0.003797263
     10        1          -0.002037029   -0.000777783   -0.017120772
     11        8          -0.037644066    0.054641355   -0.006904740
     12        1           0.016439906    0.005393083    0.022010551
     13        1           0.003627173    0.001574132    0.023509085
 -------------------------------------------------------------------
 Cartesian Forces:  Max     0.054641355 RMS     0.023589161

 GradGradGradGradGradGradGradGradGradGradGradGradGradGradGradGradGradGrad
 Berny optimization.
 FormGI is forming the generalized inverse of G from B-inverse, IUseBI=4.
 Internal  Forces:  Max     0.041955497 RMS     0.012281023
 Search for a local minimum.
 Step number   1 out of a maximum of   74 on scan point     1 out of    11
 All quantities printed in internal units (Hartrees-Bohrs-Radians)
 Mixed Optimization -- RFO/linear search
 Second derivative matrix not updated -- first step.
 ITU=  0
     Eigenvalues ---    0.00749   0.00791   0.01229   0.01365   0.01402
     Eigenvalues ---    0.01887   0.02851   0.03348   0.03631   0.12942
     Eigenvalues ---    0.13536   0.14261   0.16000   0.16000   0.16000
     Eigenvalues ---    0.16000   0.17944   0.21775   0.21993   0.24510
     Eigenvalues ---    0.27054   0.28262   0.28538   0.28851   0.37230
     Eigenvalues ---    0.37230   0.37230   0.37230   0.37230   0.37230
     Eigenvalues ---    0.50289   0.518691000.000001000.000001000.00000
     Eigenvalues --- 1000.000001000.000001000.000001000.000001000.00000
     Eigenvalues --- 1000.000001000.000001000.000001000.000001000.00000
     Eigenvalues --- 1000.000001000.000001000.000001000.000001000.00000
     Eigenvalues --- 1000.000001000.000001000.000001000.000001000.00000
     Eigenvalues --- 1000.000001000.000001000.000001000.000001000.00000
     Eigenvalues --- 1000.000001000.000001000.000001000.00000
 RFO step:  Lambda=-3.21254308D-02 EMin= 7.48808699D-03
 Linear search not attempted -- first point.
 Maximum step size (   0.300) exceeded in Quadratic search.
    -- Step size scaled by   0.966
 Iteration  1 RMS(Cart)=  0.04282227 RMS(Int)=  0.00155268
 Iteration  2 RMS(Cart)=  0.00140198 RMS(Int)=  0.00044985
 Iteration  3 RMS(Cart)=  0.00000229 RMS(Int)=  0.00044984
 Iteration  4 RMS(Cart)=  0.00000000 RMS(Int)=  0.00044984
 Iteration  1 RMS(Cart)=  0.00001055 RMS(Int)=  0.00000429
 Iteration  2 RMS(Cart)=  0.00000207 RMS(Int)=  0.00000461
 Iteration  3 RMS(Cart)=  0.00000040 RMS(Int)=  0.00000474
 Variable       Old X    -DE/DX   Delta X   Delta X   Delta X     New X
                                 (Linear)    (Quad)   (Total)
    R1        2.56857  -0.01271   0.00000  -0.02414  -0.02411   2.54445
    R2        2.93008  -0.04196   0.00000  -0.13995  -0.14002   2.79006
    R3        2.02201   0.01679   0.00000   0.04012   0.04012   2.06212
    R4        2.89754  -0.02597   0.00000  -0.07351  -0.07341   2.82413
    R5        2.02201   0.01602   0.00000   0.03827   0.03827   2.06028
    R6        2.69336   0.01976   0.00000   0.00000   0.00000   2.69335
    R7        2.87813  -0.03400   0.00000  -0.10489  -0.10441   2.77372
    R8        2.02201   0.02066   0.00000   0.04936   0.04936   2.07136
    R9        2.90407  -0.02594   0.00000  -0.07452  -0.07455   2.82951
   R10        2.91031  -0.03412   0.00000  -0.12175  -0.12207   2.78824
   R11        2.02201   0.02047   0.00000   0.04889   0.04889   2.07089
   R12        2.57381  -0.01599   0.00000  -0.03012  -0.03022   2.54359
   R13        2.02201   0.01658   0.00000   0.03961   0.03961   2.06162
   R14        2.02201   0.01669   0.00000   0.03986   0.03986   2.06187
    A1        2.10509   0.00376   0.00000   0.00319   0.00327   2.10836
    A2        2.08905   0.00216   0.00000   0.01870   0.01865   2.10770
    A3        2.08905  -0.00592   0.00000  -0.02189  -0.02194   2.06711
    A4        2.07822   0.00299   0.00000   0.01537   0.01560   2.09382
    A5        2.10247   0.00217   0.00000   0.01066   0.01052   2.11299
    A6        2.10249  -0.00516   0.00000  -0.02608  -0.02623   2.07626
    A7        2.10574  -0.00786   0.00000  -0.02020  -0.02105   2.08469
    A8        2.16271   0.00514   0.00000  -0.02886  -0.02864   2.13407
    A9        1.89802   0.01155   0.00000   0.06846   0.06774   1.96576
   A10        2.08326   0.00009   0.00000   0.00391   0.00235   2.08560
   A11        2.01177  -0.00826   0.00000  -0.04577  -0.04532   1.96646
   A12        2.06134  -0.00533   0.00000  -0.00797  -0.00834   2.05300
   A13        2.13440  -0.00220   0.00000  -0.00412  -0.00558   2.12882
   A14        1.99791   0.00815   0.00000   0.00754   0.00804   2.00596
   A15        1.91884   0.01025   0.00000   0.05487   0.05425   1.97310
   A16        2.14826  -0.01016   0.00000  -0.07664  -0.07650   2.07176
   A17        2.09012   0.00283   0.00000   0.01307   0.01314   2.10326
   A18        2.09659  -0.00465   0.00000  -0.02286  -0.02289   2.07369
   A19        2.09647   0.00182   0.00000   0.00978   0.00974   2.10621
   A20        2.11015   0.00381   0.00000   0.00305   0.00300   2.11316
   A21        2.08647  -0.00570   0.00000  -0.02051  -0.02051   2.06596
   A22        2.08654   0.00187   0.00000   0.01742   0.01742   2.10396
    D1        0.00573   0.00382   0.00000   0.01942   0.02008   0.02581
    D2       -3.14037   0.00328   0.00000   0.00767   0.00800  -3.13237
    D3       -3.13744   0.00142   0.00000   0.01379   0.01421  -3.12323
    D4       -0.00036   0.00088   0.00000   0.00203   0.00214   0.00178
    D5       -0.01038  -0.00085   0.00000  -0.01247  -0.01216  -0.02254
    D6        3.12421  -0.00338   0.00000  -0.02049  -0.02046   3.10375
    D7        3.13280   0.00155   0.00000  -0.00688  -0.00647   3.12633
    D8       -0.01580  -0.00099   0.00000  -0.01490  -0.01476  -0.03057
    D9        0.10055  -0.00574   0.00000  -0.03822  -0.03841   0.06214
   D10       -1.22774   0.00939   0.00000   0.01936   0.01913  -1.20861
   D11        2.60369   0.00044   0.00000   0.04055   0.04120   2.64489
   D12       -3.03654  -0.00522   0.00000  -0.02656  -0.02668  -3.06322
   D13        1.91836   0.00991   0.00000   0.03102   0.03086   1.94922
   D14       -0.53339   0.00096   0.00000   0.05220   0.05293  -0.48047
   D15       -0.19104   0.00382   0.00000   0.04590   0.04545  -0.14558
   D16        2.29867   0.01207   0.00000   0.13901   0.13813   2.43680
   D17       -2.62832  -0.00655   0.00000  -0.06215  -0.06174  -2.69005
   D18       -0.13862   0.00171   0.00000   0.03095   0.03094  -0.10768
   D19        0.18483   0.00048   0.00000  -0.03448  -0.03409   0.15074
   D20       -2.95197   0.00065   0.00000  -0.03148  -0.03095  -2.98291
   D21        1.40010  -0.00933   0.00000  -0.05124  -0.05170   1.34840
   D22       -1.73670  -0.00916   0.00000  -0.04824  -0.04856  -1.78525
   D23       -2.37970  -0.00323   0.00000  -0.09924  -0.10011  -2.47981
   D24        0.76669  -0.00306   0.00000  -0.09624  -0.09697   0.66972
   D25       -0.08389  -0.00261   0.00000   0.01708   0.01681  -0.06709
   D26        3.06470  -0.00004   0.00000   0.02525   0.02543   3.09014
   D27        3.05290  -0.00280   0.00000   0.01399   0.01351   3.06642
   D28       -0.08169  -0.00023   0.00000   0.02216   0.02214  -0.05955
         Item               Value     Threshold  Converged?
 Maximum Force            0.043608     0.000450     NO 
 RMS     Force            0.012067     0.000300     NO 
 Maximum Displacement     0.123987     0.001800     NO 
 RMS     Displacement     0.042999     0.001200     NO 
 Predicted change in Energy=-1.851318D-02
 GradGradGradGradGradGradGradGradGradGradGradGradGradGradGradGradGradGrad

                          Input orientation:                          
 ---------------------------------------------------------------------
 Center     Atomic      Atomic             Coordinates (Angstroms)
 Number     Number       Type             X           Y           Z
 ---------------------------------------------------------------------
      1          6           0        0.122923    0.109958   -0.222465
      2          6           0        0.069222   -0.145010    1.098551
      3          6           0        1.209952    0.246081    1.981280
      4          6           0        2.314173    0.955839    1.426022
      5          6           0        2.363208    1.109307   -0.062599
      6          6           0        1.313188    0.745315   -0.822014
      7          1           0       -0.709756   -0.154567   -0.876262
      8          1           0       -0.804012   -0.621746    1.544463
      9          1           0        3.267234    1.513955   -0.519980
     10          1           0        1.329264    0.901056   -1.901816
     11          8           0        2.515726   -0.421113    1.916335
     12          1           0        2.800799    1.780709    1.958669
     13          1           0        0.894333    0.457694    3.009425
 ---------------------------------------------------------------------
                    Distance matrix (angstroms):
                    1          2          3          4          5
     1  C    0.000000
     2  C    1.346467   0.000000
     3  C    2.461027   1.494466   0.000000
     4  C    2.869599   2.521687   1.425262   0.000000
     5  C    2.458278   2.860760   2.500520   1.497314   0.000000
     6  C    1.476438   2.455341   2.849272   2.469808   1.346009
     7  H    1.091228   2.122919   3.465739   3.959502   3.420896
     8  H    2.125237   1.090254   2.236065   3.496552   3.951009
     9  H    3.456359   3.949568   3.477962   2.237575   1.090963
    10  H    2.213891   3.418210   3.939754   3.470958   2.120171
    11  O    3.253000   2.594299   1.467792   1.475475   2.506318
    12  H    3.836636   3.451045   2.210518   1.095869   2.174349
    13  H    3.340824   2.166910   1.096119   2.184321   3.466919
                    6          7          8          9         10
     6  C    0.000000
     7  H    2.214731   0.000000
     8  H    3.457109   2.467194   0.000000
     9  H    2.121397   4.327511   5.039662   0.000000
    10  H    1.091094   2.514698   4.329738   2.457813   0.000000
    11  O    3.210172   4.274738   3.346522   3.200763   4.211187
    12  H    3.319220   4.909799   4.351784   2.536222   4.224044
    13  H    3.864982   4.248120   2.489113   4.382128   4.950355
                   11         12         13
    11  O    0.000000
    12  H    2.220603   0.000000
    13  H    2.143843   2.547365   0.000000
 Stoichiometry    C6H6O
 Framework group  C1[X(C6H6O)]
 Deg. of freedom    33
 Full point group                 C1      NOp   1
 Largest Abelian subgroup         C1      NOp   1
 Largest concise Abelian subgroup C1      NOp   1
                         Standard orientation:                         
 ---------------------------------------------------------------------
 Center     Atomic      Atomic             Coordinates (Angstroms)
 Number     Number       Type             X           Y           Z
 ---------------------------------------------------------------------
      1          6           0        1.516479   -0.679120    0.080593
      2          6           0        0.409298   -1.425899   -0.091000
      3          6           0       -0.912365   -0.762658   -0.307212
      4          6           0       -0.975655    0.657782   -0.405781
      5          6           0        0.268480    1.431388   -0.096566
      6          6           0        1.439828    0.795292    0.090695
      7          1           0        2.490721   -1.149782    0.222397
      8          1           0        0.459651   -2.514989   -0.090667
      9          1           0        0.206382    2.517788   -0.018596
     10          1           0        2.355775    1.360867    0.268605
     11          8           0       -1.595583   -0.012415    0.753335
     12          1           0       -1.624324    1.160740   -1.131860
     13          1           0       -1.599933   -1.376020   -0.900940
 ---------------------------------------------------------------------
 Rotational constants (GHZ):      4.6733495      3.3792691      2.2123348
 Standard basis: SVP (5D, 7F)
 There are   135 symmetry adapted cartesian basis functions of A   symmetry.
 There are   128 symmetry adapted basis functions of A   symmetry.
   128 basis functions,   217 primitive gaussians,   135 cartesian basis functions
    25 alpha electrons       25 beta electrons
       nuclear repulsion energy       278.0123323299 Hartrees.
 NAtoms=   13 NActive=   13 NUniq=   13 SFac= 1.00D+00 NAtFMM=   60 NAOKFM=F Big=F
 Integral buffers will be    131072 words long.
 Raffenetti 2 integral format.
 Two-electron integral symmetry is turned on.
 One-electron integrals computed using PRISM.
 NBasis=   128 RedAO= T EigKep=  3.33D-04  NBF=   128
 NBsUse=   128 1.00D-06 EigRej= -1.00D+00 NBFU=   128
 Initial guess from the checkpoint file:  "/tmp/Gau-9459.chk"
 B after Tr=     0.000000    0.000000    0.000000
         Rot=    0.999951   -0.001323   -0.006870    0.007065 Ang=  -1.14 deg.
 ExpMin= 1.22D-01 ExpMax= 2.27D+03 ExpMxC= 3.41D+02 IAcc=1 IRadAn=         1 AccDes= 0.00D+00
 Harris functional with IExCor=  402 and IRadAn=       1 diagonalized for initial guess.
 HarFok:  IExCor=  402 AccDes= 0.00D+00 IRadAn=         1 IDoV= 1 UseB2=F ITyADJ=14
 ICtDFT=  3500011 ScaDFX=  1.000000  1.000000  1.000000  1.000000
 FoFCou: FMM=F IPFlag=           0 FMFlag=      100000 FMFlg1=           0
         NFxFlg=           0 DoJE=T BraDBF=F KetDBF=T FulRan=T
         wScrn=  0.000000 ICntrl=     500 IOpCl=  0 I1Cent=   200000004 NGrid=           0
         NMat0=    1 NMatS0=      1 NMatT0=    0 NMatD0=    1 NMtDS0=    0 NMtDT0=    0
 Petite list used in FoFCou.
 Requested convergence on RMS density matrix=1.00D-08 within 128 cycles.
 Requested convergence on MAX density matrix=1.00D-06.
 Requested convergence on             energy=1.00D-06.
 No special actions if energy rises.
 Integral accuracy reduced to 1.0D-05 until final iterations.
 Initial convergence to 1.0D-05 achieved.  Increase integral accuracy.
 SCF Done:  E(RB3LYP) =  -307.162112283     A.U. after   13 cycles
            NFock= 13  Conv=0.52D-08     -V/T= 2.0102
 Calling FoFJK, ICntrl=      2127 FMM=F ISym2X=0 I1Cent= 0 IOpClX= 0 NMat=1 NMatS=1 NMatT=0.
 ***** Axes restored to original set *****
 -------------------------------------------------------------------
 Center     Atomic                   Forces (Hartrees/Bohr)
 Number     Number              X              Y              Z
 -------------------------------------------------------------------
      1        6           0.008124182    0.004042604   -0.004950711
      2        6           0.008396063   -0.003188917   -0.000235441
      3        6          -0.026841114   -0.021646057    0.017611964
      4        6           0.030900249    0.003049665   -0.026463972
      5        6          -0.000837675    0.000328738    0.005276868
      6        6          -0.007787481   -0.007122084    0.003110666
      7        1          -0.001241798   -0.000182175   -0.000934337
      8        1          -0.001657281    0.000898130    0.001833678
      9        1           0.000073333    0.005180786    0.000600392
     10        1           0.000608136   -0.001321572   -0.001805422
     11        8          -0.017532467    0.024692210   -0.005143766
     12        1           0.004898857   -0.005170258    0.007953165
     13        1           0.002896996    0.000438932    0.003146916
 -------------------------------------------------------------------
 Cartesian Forces:  Max     0.030900249 RMS     0.010882694

 GradGradGradGradGradGradGradGradGradGradGradGradGradGradGradGradGradGrad
 Berny optimization.
 Using GEDIIS/GDIIS optimizer.
 FormGI is forming the generalized inverse of G from B-inverse, IUseBI=4.
 Internal  Forces:  Max     0.029560323 RMS     0.005571933
 Search for a local minimum.
 Step number   2 out of a maximum of   74 on scan point     1 out of    11
 All quantities printed in internal units (Hartrees-Bohrs-Radians)
 Mixed Optimization -- RFO/linear search
 Update second derivatives using D2CorX and points    1    2
 DE= -2.06D-02 DEPred=-1.85D-02 R= 1.11D+00
 TightC=F SS=  1.41D+00  RLast= 3.91D-01 DXNew= 5.0454D-01 1.1726D+00
 Trust test= 1.11D+00 RLast= 3.91D-01 DXMaxT set to 5.05D-01
 ITU=  1  0
 Use linear search instead of GDIIS.
     Eigenvalues ---    0.00755   0.00787   0.01251   0.01379   0.01426
     Eigenvalues ---    0.01895   0.02734   0.03084   0.03492   0.12756
     Eigenvalues ---    0.13481   0.14420   0.15978   0.15998   0.15999
     Eigenvalues ---    0.16097   0.18041   0.21933   0.21998   0.23846
     Eigenvalues ---    0.24437   0.27723   0.28284   0.29705   0.37229
     Eigenvalues ---    0.37230   0.37230   0.37230   0.37230   0.38504
     Eigenvalues ---    0.50239   0.537911000.000001000.000001000.00000
     Eigenvalues --- 1000.000001000.000001000.000001000.000001000.00000
     Eigenvalues --- 1000.000001000.000001000.000001000.000001000.00000
     Eigenvalues --- 1000.000001000.000001000.000001000.000001000.00000
     Eigenvalues --- 1000.000001000.000001000.000001000.000001000.00000
     Eigenvalues --- 1000.000001000.000001000.000001000.000001000.00000
     Eigenvalues --- 1000.000001000.000001000.000001000.00000
 RFO step:  Lambda=-4.80898768D-03 EMin= 7.55046064D-03
 Quartic linear search produced a step of  0.37594.
 Iteration  1 RMS(Cart)=  0.06339861 RMS(Int)=  0.00268932
 Iteration  2 RMS(Cart)=  0.00305700 RMS(Int)=  0.00076752
 Iteration  3 RMS(Cart)=  0.00000429 RMS(Int)=  0.00076751
 Iteration  4 RMS(Cart)=  0.00000000 RMS(Int)=  0.00076751
 Iteration  1 RMS(Cart)=  0.00007997 RMS(Int)=  0.00003211
 Iteration  2 RMS(Cart)=  0.00001557 RMS(Int)=  0.00003454
 Iteration  3 RMS(Cart)=  0.00000303 RMS(Int)=  0.00003552
 Iteration  4 RMS(Cart)=  0.00000059 RMS(Int)=  0.00003573
 Variable       Old X    -DE/DX   Delta X   Delta X   Delta X     New X
                                 (Linear)    (Quad)   (Total)
    R1        2.54445   0.00451  -0.00907   0.01478   0.00629   2.55074
    R2        2.79006  -0.00490  -0.05264   0.01210  -0.04038   2.74968
    R3        2.06212   0.00155   0.01508  -0.00782   0.00726   2.06939
    R4        2.82413  -0.00563  -0.02760   0.00454  -0.02263   2.80150
    R5        2.06028   0.00168   0.01439  -0.00672   0.00767   2.06795
    R6        2.69335   0.02956   0.00000   0.00000   0.00000   2.69335
    R7        2.77372  -0.01353  -0.03925  -0.03482  -0.07341   2.70031
    R8        2.07136   0.00220   0.01856  -0.00856   0.00999   2.08136
    R9        2.82951  -0.00564  -0.02803   0.00708  -0.02153   2.80799
   R10        2.78824  -0.01414  -0.04589  -0.04642  -0.09240   2.69584
   R11        2.07089   0.00215   0.01838  -0.00860   0.00978   2.08068
   R12        2.54359   0.00437  -0.01136   0.01796   0.00619   2.54978
   R13        2.06162   0.00173   0.01489  -0.00700   0.00789   2.06951
   R14        2.06187   0.00161   0.01499  -0.00753   0.00745   2.06932
    A1        2.10836   0.00340   0.00123   0.00215   0.00229   2.11065
    A2        2.10770  -0.00166   0.00701  -0.00861  -0.00181   2.10588
    A3        2.06711  -0.00175  -0.00825   0.00685  -0.00160   2.06551
    A4        2.09382  -0.00057   0.00586  -0.00414   0.00136   2.09518
    A5        2.11299   0.00133   0.00395   0.00328   0.00738   2.12037
    A6        2.07626  -0.00076  -0.00986   0.00108  -0.00864   2.06762
    A7        2.08469  -0.00331  -0.00791   0.00525  -0.00482   2.07987
    A8        2.13407   0.00263  -0.01077  -0.03787  -0.04804   2.08603
    A9        1.96576   0.00544   0.02546   0.02345   0.04884   2.01459
   A10        2.08560  -0.00020   0.00088  -0.01277  -0.01284   2.07276
   A11        1.96646  -0.00165  -0.01704   0.01203  -0.00492   1.96154
   A12        2.05300  -0.00083  -0.00313   0.01226   0.00674   2.05975
   A13        2.12882  -0.00339  -0.00210  -0.02451  -0.02685   2.10197
   A14        2.00596   0.00545   0.00302   0.01255   0.01581   2.02177
   A15        1.97310   0.00550   0.02040   0.02081   0.04163   2.01472
   A16        2.07176  -0.00410  -0.02876  -0.03196  -0.06085   2.01091
   A17        2.10326  -0.00139   0.00494  -0.00347  -0.00093   2.10233
   A18        2.07369  -0.00035  -0.00861  -0.00061  -0.00804   2.06565
   A19        2.10621   0.00174   0.00366   0.00399   0.00881   2.11501
   A20        2.11316   0.00289   0.00113   0.00248   0.00148   2.11463
   A21        2.06596  -0.00158  -0.00771   0.00581  -0.00161   2.06435
   A22        2.10396  -0.00133   0.00655  -0.00744  -0.00063   2.10334
    D1        0.02581   0.00192   0.00755  -0.08255  -0.07438  -0.04857
    D2       -3.13237   0.00162   0.00301  -0.06656  -0.06298   3.08783
    D3       -3.12323   0.00063   0.00534  -0.02033  -0.01477  -3.13800
    D4        0.00178   0.00034   0.00080  -0.00434  -0.00338  -0.00160
    D5       -0.02254  -0.00012  -0.00457   0.00245  -0.00205  -0.02460
    D6        3.10375  -0.00177  -0.00769   0.06571   0.05767  -3.12177
    D7        3.12633   0.00114  -0.00243  -0.05829  -0.06031   3.06601
    D8       -0.03057  -0.00051  -0.00555   0.00497  -0.00059  -0.03116
    D9        0.06214  -0.00365  -0.01444   0.04764   0.03279   0.09492
   D10       -1.20861   0.00827   0.00719   0.07489   0.08228  -1.12632
   D11        2.64489  -0.00024   0.01549   0.07101   0.08726   2.73215
   D12       -3.06322  -0.00338  -0.01003   0.03196   0.02158  -3.04163
   D13        1.94922   0.00854   0.01160   0.05921   0.07108   2.02031
   D14       -0.48047   0.00003   0.01990   0.05533   0.07606  -0.40440
   D15       -0.14558   0.00272   0.01709   0.06001   0.07712  -0.06846
   D16        2.43680   0.00699   0.05193   0.08409   0.13472   2.57151
   D17       -2.69005  -0.00260  -0.02321   0.02304   0.00112  -2.68893
   D18       -0.10768   0.00167   0.01163   0.04712   0.05872  -0.04896
   D19        0.15074  -0.00078  -0.01282  -0.14071  -0.15292  -0.00218
   D20       -2.98291  -0.00026  -0.01163  -0.12886  -0.13991  -3.12282
   D21        1.34840  -0.00894  -0.01944  -0.13735  -0.15767   1.19073
   D22       -1.78525  -0.00841  -0.01825  -0.12550  -0.14466  -1.92991
   D23       -2.47981  -0.00211  -0.03764  -0.14874  -0.18699  -2.66680
   D24        0.66972  -0.00158  -0.03645  -0.13689  -0.17398   0.49574
   D25       -0.06709  -0.00106   0.00632   0.11161   0.11734   0.05025
   D26        3.09014   0.00062   0.00956   0.04686   0.05630  -3.13675
   D27        3.06642  -0.00161   0.00508   0.09951   0.10388  -3.11289
   D28       -0.05955   0.00008   0.00832   0.03476   0.04284  -0.01671
         Item               Value     Threshold  Converged?
 Maximum Force            0.016589     0.000450     NO 
 RMS     Force            0.003781     0.000300     NO 
 Maximum Displacement     0.248018     0.001800     NO 
 RMS     Displacement     0.063214     0.001200     NO 
 Predicted change in Energy=-5.574897D-03
 GradGradGradGradGradGradGradGradGradGradGradGradGradGradGradGradGradGrad

                          Input orientation:                          
 ---------------------------------------------------------------------
 Center     Atomic      Atomic             Coordinates (Angstroms)
 Number     Number       Type             X           Y           Z
 ---------------------------------------------------------------------
      1          6           0        0.152689    0.069233   -0.233264
      2          6           0        0.065208   -0.118243    1.100582
      3          6           0        1.195237    0.266089    1.979848
      4          6           0        2.317570    0.938614    1.414651
      5          6           0        2.339253    1.145001   -0.056709
      6          6           0        1.321971    0.702044   -0.824495
      7          1           0       -0.677255   -0.207910   -0.891722
      8          1           0       -0.830427   -0.547636    1.559905
      9          1           0        3.207308    1.645200   -0.498984
     10          1           0        1.339111    0.849625   -1.909408
     11          8           0        2.446758   -0.412138    1.855000
     12          1           0        2.878622    1.679984    2.004477
     13          1           0        0.930209    0.467614    3.029726
 ---------------------------------------------------------------------
                    Distance matrix (angstroms):
                    1          2          3          4          5
     1  C    0.000000
     2  C    1.349794   0.000000
     3  C    2.454287   1.482493   0.000000
     4  C    2.856249   2.507732   1.425262   0.000000
     5  C    2.443258   2.847172   2.495762   1.485923   0.000000
     6  C    1.455069   2.440952   2.840855   2.461902   1.349284
     7  H    1.095072   2.128043   3.460754   3.950045   3.409830
     8  H    2.136001   1.094312   2.223019   3.484239   3.940220
     9  H    3.447459   3.942225   3.477785   2.225511   1.095137
    10  H    2.196831   3.408759   3.935419   3.466219   2.126035
    11  O    3.139317   2.515412   1.428945   1.426579   2.467969
    12  H    3.877204   3.459183   2.198521   1.101046   2.196728
    13  H    3.377920   2.193867   1.101406   2.180614   3.459817
                    6          7          8          9         10
     6  C    0.000000
     7  H    2.197599   0.000000
     8  H    3.446720   2.479789   0.000000
     9  H    2.133072   4.321816   5.034963   0.000000
    10  H    1.095039   2.493952   4.323814   2.472326   0.000000
    11  O    3.112273   4.164811   3.293232   3.217502   4.121856
    12  H    3.373812   4.959474   4.349365   2.525186   4.286967
    13  H    3.881166   4.291623   2.508175   4.361614   4.970731
                   11         12         13
    11  O    0.000000
    12  H    2.141454   0.000000
    13  H    2.110418   2.513421   0.000000
 Stoichiometry    C6H6O
 Framework group  C1[X(C6H6O)]
 Deg. of freedom    33
 Full point group                 C1      NOp   1
 Largest Abelian subgroup         C1      NOp   1
 Largest concise Abelian subgroup C1      NOp   1
                         Standard orientation:                         
 ---------------------------------------------------------------------
 Center     Atomic      Atomic             Coordinates (Angstroms)
 Number     Number       Type             X           Y           Z
 ---------------------------------------------------------------------
      1          6           0        1.484629   -0.690440    0.093536
      2          6           0        0.371874   -1.420787   -0.130768
      3          6           0       -0.935429   -0.745373   -0.311214
      4          6           0       -0.980696    0.678287   -0.361345
      5          6           0        0.284765    1.425037   -0.140118
      6          6           0        1.435572    0.763773    0.102662
      7          1           0        2.455972   -1.178721    0.224909
      8          1           0        0.407123   -2.512979   -0.189005
      9          1           0        0.253000    2.519539   -0.159645
     10          1           0        2.367810    1.313259    0.270309
     11          8           0       -1.503436   -0.009417    0.773967
     12          1           0       -1.729413    1.190875   -0.985026
     13          1           0       -1.691292   -1.319614   -0.869795
 ---------------------------------------------------------------------
 Rotational constants (GHZ):      4.7093111      3.4925948      2.2707510
 Standard basis: SVP (5D, 7F)
 There are   135 symmetry adapted cartesian basis functions of A   symmetry.
 There are   128 symmetry adapted basis functions of A   symmetry.
   128 basis functions,   217 primitive gaussians,   135 cartesian basis functions
    25 alpha electrons       25 beta electrons
       nuclear repulsion energy       280.7365359430 Hartrees.
 NAtoms=   13 NActive=   13 NUniq=   13 SFac= 1.00D+00 NAtFMM=   60 NAOKFM=F Big=F
 Integral buffers will be    131072 words long.
 Raffenetti 2 integral format.
 Two-electron integral symmetry is turned on.
 One-electron integrals computed using PRISM.
 NBasis=   128 RedAO= T EigKep=  2.95D-04  NBF=   128
 NBsUse=   128 1.00D-06 EigRej= -1.00D+00 NBFU=   128
 Initial guess from the checkpoint file:  "/tmp/Gau-9459.chk"
 B after Tr=     0.000000    0.000000    0.000000
         Rot=    0.999923   -0.002883   -0.009642    0.007279 Ang=  -1.42 deg.
 ExpMin= 1.22D-01 ExpMax= 2.27D+03 ExpMxC= 3.41D+02 IAcc=1 IRadAn=         1 AccDes= 0.00D+00
 Harris functional with IExCor=  402 and IRadAn=       1 diagonalized for initial guess.
 HarFok:  IExCor=  402 AccDes= 0.00D+00 IRadAn=         1 IDoV= 1 UseB2=F ITyADJ=14
 ICtDFT=  3500011 ScaDFX=  1.000000  1.000000  1.000000  1.000000
 FoFCou: FMM=F IPFlag=           0 FMFlag=      100000 FMFlg1=           0
         NFxFlg=           0 DoJE=T BraDBF=F KetDBF=T FulRan=T
         wScrn=  0.000000 ICntrl=     500 IOpCl=  0 I1Cent=   200000004 NGrid=           0
         NMat0=    1 NMatS0=      1 NMatT0=    0 NMatD0=    1 NMtDS0=    0 NMtDT0=    0
 Petite list used in FoFCou.
 Requested convergence on RMS density matrix=1.00D-08 within 128 cycles.
 Requested convergence on MAX density matrix=1.00D-06.
 Requested convergence on             energy=1.00D-06.
 No special actions if energy rises.
 Integral accuracy reduced to 1.0D-05 until final iterations.
 Initial convergence to 1.0D-05 achieved.  Increase integral accuracy.
 SCF Done:  E(RB3LYP) =  -307.167527917     A.U. after   13 cycles
            NFock= 13  Conv=0.45D-08     -V/T= 2.0098
 Calling FoFJK, ICntrl=      2127 FMM=F ISym2X=0 I1Cent= 0 IOpClX= 0 NMat=1 NMatS=1 NMatT=0.
 ***** Axes restored to original set *****
 -------------------------------------------------------------------
 Center     Atomic                   Forces (Hartrees/Bohr)
 Number     Number              X              Y              Z
 -------------------------------------------------------------------
      1        6          -0.002740190   -0.000821570   -0.001053724
      2        6          -0.000261438   -0.003304878    0.000353190
      3        6          -0.037780797   -0.019091994    0.026095501
      4        6           0.037969466    0.023639186   -0.023190863
      5        6           0.003418198    0.002120477   -0.000349386
      6        6           0.000552142    0.000226673   -0.003322091
      7        1           0.000807403   -0.000667130    0.000915744
      8        1           0.000049571    0.001898660   -0.000539613
      9        1          -0.002439650    0.001973216    0.000524837
     10        1           0.000878056   -0.000684549    0.000936193
     11        8          -0.000511763   -0.002621315   -0.000259457
     12        1           0.000509089   -0.002654998    0.001118337
     13        1          -0.000450086   -0.000011780   -0.001228668
 -------------------------------------------------------------------
 Cartesian Forces:  Max     0.037969466 RMS     0.011429632

 GradGradGradGradGradGradGradGradGradGradGradGradGradGradGradGradGradGrad
 Berny optimization.
 Using GEDIIS/GDIIS optimizer.
 FormGI is forming the generalized inverse of G from B-inverse, IUseBI=4.
 Internal  Forces:  Max     0.039149668 RMS     0.005554783
 Search for a local minimum.
 Step number   3 out of a maximum of   74 on scan point     1 out of    11
 All quantities printed in internal units (Hartrees-Bohrs-Radians)
 Mixed Optimization -- RFO/linear search
 Update second derivatives using D2CorX and points    2    3
 DE= -5.42D-03 DEPred=-5.57D-03 R= 9.71D-01
 TightC=F SS=  1.41D+00  RLast= 5.32D-01 DXNew= 8.4853D-01 1.5966D+00
 Trust test= 9.71D-01 RLast= 5.32D-01 DXMaxT set to 8.49D-01
 ITU=  1  1  0
 Use linear search instead of GDIIS.
     Eigenvalues ---    0.00740   0.00808   0.01266   0.01390   0.01432
     Eigenvalues ---    0.01825   0.02605   0.02897   0.03325   0.12730
     Eigenvalues ---    0.13895   0.14837   0.15977   0.15993   0.15998
     Eigenvalues ---    0.16126   0.18066   0.21932   0.21991   0.23916
     Eigenvalues ---    0.27256   0.27696   0.28289   0.30064   0.37229
     Eigenvalues ---    0.37230   0.37230   0.37230   0.37234   0.39005
     Eigenvalues ---    0.50268   0.535931000.000001000.000001000.00000
     Eigenvalues --- 1000.000001000.000001000.000001000.000001000.00000
     Eigenvalues --- 1000.000001000.000001000.000001000.000001000.00000
     Eigenvalues --- 1000.000001000.000001000.000001000.000001000.00000
     Eigenvalues --- 1000.000001000.000001000.000001000.000001000.00000
     Eigenvalues --- 1000.000001000.000001000.000001000.000001000.00000
     Eigenvalues --- 1000.000001000.000001000.000001000.00000
 RFO step:  Lambda=-1.16555071D-03 EMin= 7.40445291D-03
 Quartic linear search produced a step of  0.22031.
 Iteration  1 RMS(Cart)=  0.04427429 RMS(Int)=  0.00129238
 Iteration  2 RMS(Cart)=  0.00145208 RMS(Int)=  0.00041753
 Iteration  3 RMS(Cart)=  0.00000043 RMS(Int)=  0.00041753
 Iteration  1 RMS(Cart)=  0.00004971 RMS(Int)=  0.00001956
 Iteration  2 RMS(Cart)=  0.00000944 RMS(Int)=  0.00002101
 Iteration  3 RMS(Cart)=  0.00000179 RMS(Int)=  0.00002158
 Iteration  4 RMS(Cart)=  0.00000034 RMS(Int)=  0.00002170
 Variable       Old X    -DE/DX   Delta X   Delta X   Delta X     New X
                                 (Linear)    (Quad)   (Total)
    R1        2.55074   0.00327   0.00139   0.00127   0.00294   2.55368
    R2        2.74968   0.00621  -0.00890   0.01544   0.00668   2.75636
    R3        2.06939  -0.00099   0.00160  -0.00289  -0.00129   2.06810
    R4        2.80150  -0.00013  -0.00498   0.00598   0.00115   2.80266
    R5        2.06795  -0.00101   0.00169  -0.00310  -0.00141   2.06654
    R6        2.69335   0.03915   0.00000   0.00000   0.00000   2.69335
    R7        2.70031   0.00345  -0.01617   0.01080  -0.00517   2.69514
    R8        2.08136  -0.00107   0.00220  -0.00325  -0.00105   2.08031
    R9        2.80799  -0.00051  -0.00474   0.00570   0.00067   2.80866
   R10        2.69584   0.00544  -0.02036   0.02051   0.00026   2.69610
   R11        2.08068  -0.00093   0.00216  -0.00279  -0.00063   2.08004
   R12        2.54978   0.00338   0.00136   0.00199   0.00321   2.55299
   R13        2.06951  -0.00124   0.00174  -0.00383  -0.00210   2.06741
   R14        2.06932  -0.00101   0.00164  -0.00297  -0.00133   2.06799
    A1        2.11065   0.00404   0.00051  -0.00036  -0.00062   2.11003
    A2        2.10588  -0.00256  -0.00040  -0.00337  -0.00375   2.10214
    A3        2.06551  -0.00142  -0.00035   0.00294   0.00261   2.06812
    A4        2.09518  -0.00064   0.00030  -0.00100  -0.00124   2.09394
    A5        2.12037   0.00000   0.00163  -0.00277  -0.00088   2.11949
    A6        2.06762   0.00063  -0.00190   0.00375   0.00211   2.06974
    A7        2.07987  -0.00397  -0.00106  -0.00047  -0.00270   2.07717
    A8        2.08603   0.00238  -0.01058  -0.02215  -0.03256   2.05346
    A9        2.01459   0.00177   0.01076  -0.00077   0.01015   2.02474
   A10        2.07276   0.00273  -0.00283   0.00800   0.00531   2.07807
   A11        1.96154   0.00067  -0.00108   0.00923   0.00795   1.96949
   A12        2.05975  -0.00114   0.00149   0.00434   0.00443   2.06418
   A13        2.10197  -0.00023  -0.00592  -0.00435  -0.00978   2.09219
   A14        2.02177   0.00476   0.00348   0.00981   0.01332   2.03508
   A15        2.01472   0.00176   0.00917  -0.00084   0.00883   2.02355
   A16        2.01091  -0.00062  -0.01341  -0.00814  -0.02171   1.98920
   A17        2.10233  -0.00164  -0.00020  -0.00252  -0.00426   2.09807
   A18        2.06565   0.00121  -0.00177   0.00499   0.00381   2.06946
   A19        2.11501   0.00044   0.00194  -0.00191   0.00062   2.11563
   A20        2.11463   0.00354   0.00033  -0.00158  -0.00253   2.11210
   A21        2.06435  -0.00115  -0.00036   0.00377   0.00361   2.06796
   A22        2.10334  -0.00232  -0.00014  -0.00311  -0.00308   2.10026
    D1       -0.04857   0.00139  -0.01639  -0.04656  -0.06273  -0.11130
    D2        3.08783   0.00112  -0.01388  -0.05060  -0.06423   3.02360
    D3       -3.13800   0.00002  -0.00325  -0.02866  -0.03195   3.11324
    D4       -0.00160  -0.00025  -0.00074  -0.03270  -0.03345  -0.03505
    D5       -0.02460   0.00013  -0.00045   0.01770   0.01714  -0.00746
    D6       -3.12177  -0.00139   0.01270   0.04121   0.05371  -3.06806
    D7        3.06601   0.00143  -0.01329   0.00002  -0.01324   3.05277
    D8       -0.03116  -0.00009  -0.00013   0.02353   0.02333  -0.00782
    D9        0.09492  -0.00255   0.00722   0.01925   0.02635   0.12127
   D10       -1.12632   0.00631   0.01813   0.02019   0.03863  -1.08770
   D11        2.73215  -0.00063   0.01923   0.03515   0.05446   2.78661
   D12       -3.04163  -0.00229   0.00476   0.02318   0.02781  -3.01382
   D13        2.02031   0.00657   0.01566   0.02412   0.04009   2.06039
   D14       -0.40440  -0.00037   0.01676   0.03909   0.05593  -0.34848
   D15       -0.06846   0.00119   0.01699   0.03437   0.05148  -0.01699
   D16        2.57151   0.00252   0.02968   0.03235   0.06170   2.63322
   D17       -2.68893  -0.00042   0.00025   0.02056   0.02121  -2.66772
   D18       -0.04896   0.00090   0.01294   0.01854   0.03144  -0.01752
   D19       -0.00218   0.00075  -0.03369  -0.06342  -0.09696  -0.09914
   D20       -3.12282   0.00071  -0.03082  -0.09330  -0.12409   3.03628
   D21        1.19073  -0.00730  -0.03474  -0.05808  -0.09316   1.09757
   D22       -1.92991  -0.00734  -0.03187  -0.08797  -0.12029  -2.05020
   D23       -2.66680   0.00000  -0.04120  -0.06040  -0.10156  -2.76836
   D24        0.49574  -0.00004  -0.03833  -0.09028  -0.12868   0.36706
   D25        0.05025  -0.00152   0.02585   0.03846   0.06393   0.11419
   D26       -3.13675   0.00007   0.01240   0.01461   0.02685  -3.10990
   D27       -3.11289  -0.00147   0.02289   0.06929   0.09183  -3.02107
   D28       -0.01671   0.00012   0.00944   0.04543   0.05475   0.03804
         Item               Value     Threshold  Converged?
 Maximum Force            0.003030     0.000450     NO 
 RMS     Force            0.001065     0.000300     NO 
 Maximum Displacement     0.190207     0.001800     NO 
 RMS     Displacement     0.044182     0.001200     NO 
 Predicted change in Energy=-9.320374D-04
 GradGradGradGradGradGradGradGradGradGradGradGradGradGradGradGradGradGrad

                          Input orientation:                          
 ---------------------------------------------------------------------
 Center     Atomic      Atomic             Coordinates (Angstroms)
 Number     Number       Type             X           Y           Z
 ---------------------------------------------------------------------
      1          6           0        0.168253    0.037629   -0.235644
      2          6           0        0.058154   -0.099066    1.104260
      3          6           0        1.191383    0.278829    1.983225
      4          6           0        2.326770    0.921539    1.409472
      5          6           0        2.331601    1.165131   -0.056700
      6          6           0        1.334750    0.681169   -0.829504
      7          1           0       -0.653135   -0.263601   -0.893122
      8          1           0       -0.857394   -0.479825    1.565433
      9          1           0        3.152403    1.745853   -0.487912
     10          1           0        1.351541    0.833838   -1.913007
     11          8           0        2.414675   -0.438516    1.831426
     12          1           0        2.927163    1.617404    2.015167
     13          1           0        0.940088    0.477094    3.036514
 ---------------------------------------------------------------------
                    Distance matrix (angstroms):
                    1          2          3          4          5
     1  C    0.000000
     2  C    1.351352   0.000000
     3  C    2.455271   1.483102   0.000000
     4  C    2.854278   2.506274   1.425262   0.000000
     5  C    2.446090   2.848610   2.499384   1.486278   0.000000
     6  C    1.458605   2.444976   2.844974   2.460670   1.350983
     7  H    1.094392   2.126626   3.459747   3.947952   3.413139
     8  H    2.136256   1.093566   2.224319   3.482391   3.937878
     9  H    3.447727   3.938669   3.479120   2.227382   1.094029
    10  H    2.201741   3.412779   3.938821   3.463759   2.125123
    11  O    3.089645   2.489415   1.426208   1.426717   2.478629
    12  H    3.895308   3.465145   2.192199   1.100711   2.202698
    13  H    3.390557   2.200766   1.100852   2.183502   3.460878
                    6          7          8          9         10
     6  C    0.000000
     7  H    2.201891   0.000000
     8  H    3.448061   2.476483   0.000000
     9  H    2.134034   4.322525   5.024773   0.000000
    10  H    1.094335   2.502651   4.324887   2.470986   0.000000
    11  O    3.082285   4.106728   3.283123   3.270327   4.095109
    12  H    3.391823   4.981451   4.350115   2.516472   4.304313
    13  H    3.891465   4.304535   2.512113   4.350364   4.979389
                   11         12         13
    11  O    0.000000
    12  H    2.126784   0.000000
    13  H    2.113051   2.508371   0.000000
 Stoichiometry    C6H6O
 Framework group  C1[X(C6H6O)]
 Deg. of freedom    33
 Full point group                 C1      NOp   1
 Largest Abelian subgroup         C1      NOp   1
 Largest concise Abelian subgroup C1      NOp   1
                         Standard orientation:                         
 ---------------------------------------------------------------------
 Center     Atomic      Atomic             Coordinates (Angstroms)
 Number     Number       Type             X           Y           Z
 ---------------------------------------------------------------------
      1          6           0        1.459269   -0.718230    0.111008
      2          6           0        0.339484   -1.423296   -0.163062
      3          6           0       -0.956852   -0.721401   -0.325687
      4          6           0       -0.974592    0.703699   -0.337704
      5          6           0        0.313101    1.425192   -0.163580
      6          6           0        1.443832    0.740289    0.114828
      7          1           0        2.414940   -1.230641    0.258729
      8          1           0        0.363490   -2.510762   -0.275885
      9          1           0        0.321663    2.513835   -0.271660
     10          1           0        2.387291    1.271818    0.272719
     11          8           0       -1.467779   -0.006089    0.797411
     12          1           0       -1.752868    1.237547   -0.904148
     13          1           0       -1.737731   -1.270596   -0.873856
 ---------------------------------------------------------------------
 Rotational constants (GHZ):      4.6730270      3.5207855      2.2891918
 Standard basis: SVP (5D, 7F)
 There are   135 symmetry adapted cartesian basis functions of A   symmetry.
 There are   128 symmetry adapted basis functions of A   symmetry.
   128 basis functions,   217 primitive gaussians,   135 cartesian basis functions
    25 alpha electrons       25 beta electrons
       nuclear repulsion energy       280.9242389194 Hartrees.
 NAtoms=   13 NActive=   13 NUniq=   13 SFac= 1.00D+00 NAtFMM=   60 NAOKFM=F Big=F
 Integral buffers will be    131072 words long.
 Raffenetti 2 integral format.
 Two-electron integral symmetry is turned on.
 One-electron integrals computed using PRISM.
 NBasis=   128 RedAO= T EigKep=  2.95D-04  NBF=   128
 NBsUse=   128 1.00D-06 EigRej= -1.00D+00 NBFU=   128
 Initial guess from the checkpoint file:  "/tmp/Gau-9459.chk"
 B after Tr=     0.000000    0.000000    0.000000
         Rot=    0.999947   -0.003399   -0.003643    0.009064 Ang=  -1.19 deg.
 ExpMin= 1.22D-01 ExpMax= 2.27D+03 ExpMxC= 3.41D+02 IAcc=1 IRadAn=         1 AccDes= 0.00D+00
 Harris functional with IExCor=  402 and IRadAn=       1 diagonalized for initial guess.
 HarFok:  IExCor=  402 AccDes= 0.00D+00 IRadAn=         1 IDoV= 1 UseB2=F ITyADJ=14
 ICtDFT=  3500011 ScaDFX=  1.000000  1.000000  1.000000  1.000000
 FoFCou: FMM=F IPFlag=           0 FMFlag=      100000 FMFlg1=           0
         NFxFlg=           0 DoJE=T BraDBF=F KetDBF=T FulRan=T
         wScrn=  0.000000 ICntrl=     500 IOpCl=  0 I1Cent=   200000004 NGrid=           0
         NMat0=    1 NMatS0=      1 NMatT0=    0 NMatD0=    1 NMtDS0=    0 NMtDT0=    0
 Petite list used in FoFCou.
 Requested convergence on RMS density matrix=1.00D-08 within 128 cycles.
 Requested convergence on MAX density matrix=1.00D-06.
 Requested convergence on             energy=1.00D-06.
 No special actions if energy rises.
 Integral accuracy reduced to 1.0D-05 until final iterations.
 Initial convergence to 1.0D-05 achieved.  Increase integral accuracy.
 SCF Done:  E(RB3LYP) =  -307.168474850     A.U. after   12 cycles
            NFock= 12  Conv=0.76D-08     -V/T= 2.0098
 Calling FoFJK, ICntrl=      2127 FMM=F ISym2X=0 I1Cent= 0 IOpClX= 0 NMat=1 NMatS=1 NMatT=0.
 ***** Axes restored to original set *****
 -------------------------------------------------------------------
 Center     Atomic                   Forces (Hartrees/Bohr)
 Number     Number              X              Y              Z
 -------------------------------------------------------------------
      1        6          -0.000120776    0.000389814   -0.001185577
      2        6           0.000375153   -0.001038994    0.000576081
      3        6          -0.041866171   -0.021965784    0.024703038
      4        6           0.041031886    0.024304043   -0.023591391
      5        6           0.002012665    0.000771767    0.001502870
      6        6          -0.001389865   -0.000224268   -0.000930488
      7        1           0.000546526   -0.000158202    0.000361741
      8        1           0.000215063    0.000584831   -0.000394181
      9        1          -0.000806392   -0.000047077    0.000251660
     10        1           0.000109483   -0.000253249    0.000531030
     11        8           0.000932029   -0.001447609   -0.000648023
     12        1          -0.000411636   -0.001037344   -0.000121041
     13        1          -0.000627964    0.000122072   -0.001055720
 -------------------------------------------------------------------
 Cartesian Forces:  Max     0.041866171 RMS     0.012086744

 GradGradGradGradGradGradGradGradGradGradGradGradGradGradGradGradGradGrad
 Berny optimization.
 Using GEDIIS/GDIIS optimizer.
 FormGI is forming the generalized inverse of G from B-inverse, IUseBI=4.
 Internal  Forces:  Max     0.042193211 RMS     0.005878991
 Search for a local minimum.
 Step number   4 out of a maximum of   74 on scan point     1 out of    11
 All quantities printed in internal units (Hartrees-Bohrs-Radians)
 Mixed Optimization -- En-DIIS/RFO-DIIS
 Update second derivatives using D2CorX and points    3    4
 DE= -9.47D-04 DEPred=-9.32D-04 R= 1.02D+00
 TightC=F SS=  1.41D+00  RLast= 3.55D-01 DXNew= 1.4270D+00 1.0649D+00
 Trust test= 1.02D+00 RLast= 3.55D-01 DXMaxT set to 1.06D+00
 ITU=  1  1  1  0
 Use linear search instead of GDIIS.
     Eigenvalues ---    0.00756   0.00880   0.01265   0.01407   0.01439
     Eigenvalues ---    0.01728   0.02523   0.02885   0.03281   0.12640
     Eigenvalues ---    0.14041   0.15012   0.15935   0.15985   0.16002
     Eigenvalues ---    0.16092   0.18040   0.21911   0.21953   0.23671
     Eigenvalues ---    0.26425   0.27719   0.28309   0.30686   0.37228
     Eigenvalues ---    0.37230   0.37230   0.37230   0.37246   0.38550
     Eigenvalues ---    0.50258   0.531661000.000001000.000001000.00000
     Eigenvalues --- 1000.000001000.000001000.000001000.000001000.00000
     Eigenvalues --- 1000.000001000.000001000.000001000.000001000.00000
     Eigenvalues --- 1000.000001000.000001000.000001000.000001000.00000
     Eigenvalues --- 1000.000001000.000001000.000001000.000001000.00000
     Eigenvalues --- 1000.000001000.000001000.000001000.000001000.00000
     Eigenvalues --- 1000.000001000.000001000.000001000.00000
 RFO step:  Lambda=-7.23812608D-05 EMin= 7.55534952D-03
 Quartic linear search produced a step of  0.19090.
 Iteration  1 RMS(Cart)=  0.00933405 RMS(Int)=  0.00008100
 Iteration  2 RMS(Cart)=  0.00006084 RMS(Int)=  0.00006042
 Iteration  3 RMS(Cart)=  0.00000000 RMS(Int)=  0.00006042
 Iteration  1 RMS(Cart)=  0.00000536 RMS(Int)=  0.00000210
 Iteration  2 RMS(Cart)=  0.00000101 RMS(Int)=  0.00000225
 Iteration  3 RMS(Cart)=  0.00000019 RMS(Int)=  0.00000232
 Variable       Old X    -DE/DX   Delta X   Delta X   Delta X     New X
                                 (Linear)    (Quad)   (Total)
    R1        2.55368   0.00237   0.00056   0.00116   0.00175   2.55543
    R2        2.75636   0.00277   0.00128  -0.00449  -0.00319   2.75317
    R3        2.06810  -0.00058  -0.00025  -0.00134  -0.00159   2.06651
    R4        2.80266  -0.00159   0.00022  -0.00088  -0.00065   2.80201
    R5        2.06654  -0.00055  -0.00027  -0.00123  -0.00150   2.06504
    R6        2.69335   0.04219   0.00000   0.00000   0.00000   2.69335
    R7        2.69514   0.00426  -0.00099   0.00438   0.00342   2.69856
    R8        2.08031  -0.00085  -0.00020  -0.00211  -0.00231   2.07800
    R9        2.80866  -0.00270   0.00013  -0.00568  -0.00558   2.80307
   R10        2.69610   0.00427   0.00005   0.00031   0.00037   2.69647
   R11        2.08004  -0.00095  -0.00012  -0.00249  -0.00261   2.07743
   R12        2.55299   0.00270   0.00061   0.00172   0.00232   2.55531
   R13        2.06741  -0.00073  -0.00040  -0.00171  -0.00211   2.06531
   R14        2.06799  -0.00056  -0.00025  -0.00126  -0.00151   2.06648
    A1        2.11003   0.00437  -0.00012   0.00072   0.00049   2.11052
    A2        2.10214  -0.00224  -0.00072   0.00006  -0.00063   2.10150
    A3        2.06812  -0.00201   0.00050  -0.00030   0.00021   2.06833
    A4        2.09394  -0.00063  -0.00024   0.00123   0.00088   2.09482
    A5        2.11949   0.00011  -0.00017  -0.00184  -0.00197   2.11752
    A6        2.06974   0.00052   0.00040   0.00057   0.00101   2.07075
    A7        2.07717  -0.00403  -0.00052  -0.00405  -0.00473   2.07244
    A8        2.05346   0.00385  -0.00622  -0.00523  -0.01145   2.04202
    A9        2.02474   0.00134   0.00194  -0.00028   0.00169   2.02643
   A10        2.07807   0.00307   0.00101   0.00292   0.00398   2.08205
   A11        1.96949   0.00062   0.00152   0.00801   0.00950   1.97899
   A12        2.06418  -0.00245   0.00085   0.00455   0.00521   2.06939
   A13        2.09219   0.00155  -0.00187  -0.00333  -0.00512   2.08707
   A14        2.03508   0.00466   0.00254   0.00056   0.00309   2.03818
   A15        2.02355   0.00127   0.00169  -0.00040   0.00136   2.02491
   A16        1.98920  -0.00020  -0.00414  -0.00281  -0.00699   1.98222
   A17        2.09807  -0.00102  -0.00081  -0.00117  -0.00220   2.09587
   A18        2.06946   0.00061   0.00073   0.00088   0.00166   2.07112
   A19        2.11563   0.00041   0.00012   0.00026   0.00044   2.11607
   A20        2.11210   0.00422  -0.00048  -0.00020  -0.00086   2.11124
   A21        2.06796  -0.00197   0.00069   0.00004   0.00076   2.06872
   A22        2.10026  -0.00213  -0.00059   0.00088   0.00032   2.10058
    D1       -0.11130   0.00208  -0.01198   0.00222  -0.00973  -0.12103
    D2        3.02360   0.00195  -0.01226  -0.00567  -0.01788   3.00572
    D3        3.11324   0.00049  -0.00610  -0.00454  -0.01066   3.10258
    D4       -0.03505   0.00036  -0.00638  -0.01243  -0.01882  -0.05386
    D5       -0.00746   0.00005   0.00327   0.00540   0.00865   0.00118
    D6       -3.06806  -0.00153   0.01025  -0.00481   0.00540  -3.06266
    D7        3.05277   0.00160  -0.00253   0.01205   0.00952   3.06229
    D8       -0.00782   0.00002   0.00445   0.00184   0.00628  -0.00155
    D9        0.12127  -0.00284   0.00503  -0.00708  -0.00203   0.11924
   D10       -1.08770   0.00677   0.00737  -0.00263   0.00477  -1.08293
   D11        2.78661  -0.00113   0.01040  -0.00927   0.00113   2.78774
   D12       -3.01382  -0.00271   0.00531   0.00059   0.00592  -3.00790
   D13        2.06039   0.00690   0.00765   0.00504   0.01272   2.07312
   D14       -0.34848  -0.00100   0.01068  -0.00159   0.00908  -0.33940
   D15       -0.01699   0.00040   0.00983   0.00433   0.01417  -0.00281
   D16        2.63322   0.00157   0.01178   0.00607   0.01780   2.65102
   D17       -2.66772  -0.00081   0.00405   0.00754   0.01164  -2.65608
   D18       -0.01752   0.00036   0.00600   0.00928   0.01527  -0.00225
   D19       -0.09914   0.00228  -0.01851   0.00330  -0.01522  -0.11436
   D20        3.03628   0.00218  -0.02369  -0.00178  -0.02550   3.01078
   D21        1.09757  -0.00634  -0.01778   0.00714  -0.01068   1.08689
   D22       -2.05020  -0.00644  -0.02296   0.00206  -0.02096  -2.07116
   D23       -2.76836   0.00103  -0.01939   0.00251  -0.01687  -2.78523
   D24        0.36706   0.00093  -0.02457  -0.00257  -0.02714   0.33991
   D25        0.11419  -0.00216   0.01220  -0.00831   0.00382   0.11801
   D26       -3.10990  -0.00054   0.00513   0.00205   0.00715  -3.10275
   D27       -3.02107  -0.00206   0.01753  -0.00310   0.01437  -3.00670
   D28        0.03804  -0.00044   0.01045   0.00727   0.01769   0.05572
         Item               Value     Threshold  Converged?
 Maximum Force            0.001145     0.000450     NO 
 RMS     Force            0.000479     0.000300     NO 
 Maximum Displacement     0.032988     0.001800     NO 
 RMS     Displacement     0.009337     0.001200     NO 
 Predicted change in Energy=-6.388961D-05
 GradGradGradGradGradGradGradGradGradGradGradGradGradGradGradGradGradGrad

                          Input orientation:                          
[...]
           R3           1.09414   1.09433   1.09452   1.09468   1.09481
           R4           1.38102   1.36495   1.35460   1.34827   1.34394
           R5           1.09434   1.09448   1.09462   1.09468   1.09460
           R6           1.92526   2.02526   2.12526   2.22526   2.32526
           R7           1.37933   1.37402   1.37347   1.37676   1.38322
           R8           1.09724   1.09747   1.09739   1.09689   1.09589
           R9           1.38087   1.36517   1.35465   1.34815   1.34396
           R10          1.37924   1.37397   1.37352   1.37716   1.38324
           R11          1.09727   1.09745   1.09740   1.09686   1.09589
           R12          1.41258   1.42914   1.44180   1.45150   1.45943
           R13          1.09433   1.09448   1.09463   1.09469   1.09461
           R14          1.09414   1.09433   1.09452   1.09467   1.09481
           A1         122.42264 122.69036 123.17028 123.86275 124.78779
           A2         118.44067 118.18197 117.80066 117.31195 116.68688
           A3         117.91094 118.19043 118.40077 118.46111 118.36394
           A4         122.39140 122.98154 123.71178 124.53878 125.51725
           A5         119.31171 118.95258 118.60648 118.26656 117.86206
           A6         117.98156 117.80194 117.52799 117.13767 116.61536
           A7         110.82311 109.21254 107.64134 106.25375 105.00145
           A8         120.28258 121.04888 121.84822 122.81516 124.09053
           A9         122.66709 122.69172 122.57661 122.46642 122.50994
           A10        116.76854 118.00387 120.29544 123.14986 126.31574
           A11        115.52461 115.56012 115.24279 114.55146 113.31865
           A12        110.84543 109.18783 107.66020 106.23124 105.00342
           A13        116.77577 118.03850 120.27234 123.15372 126.31912
           A14        120.28714 121.03291 121.84793 122.79505 124.09124
           A15        122.65074 122.70328 122.56900 122.49863 122.50689
           A16        115.52788 115.55952 115.25222 114.53948 113.32069
           A17        122.38649 122.98779 123.70658 124.55047 125.51798
           A18        117.97572 117.80677 117.52869 117.14142 116.61001
           A19        119.32405 118.94379 118.60950 118.25168 117.86675
           A20        122.41729 122.69748 123.15975 123.88009 124.78517
           A21        117.90852 118.19470 118.40085 118.46212 118.36201
           A22        118.44692 118.17290 117.80959 117.29562 116.69165
           D1         -25.59304 -28.06388 -29.37770 -29.41777 -27.98599
           D2         147.82503 145.89971 145.99736 147.75207 151.14263
           D3         167.32874 163.22554 159.86690 157.63237 156.72282
           D4         -19.25319 -22.81088 -24.75804 -25.19780 -24.14856
           D5          -0.01728   0.00672  -0.01359   0.01186  -0.00062
           D6        -167.15338-168.71574-170.70642-172.88098-175.22269
           D7         167.12587 168.71640 170.68950 172.88611 175.21802
           D8          -0.01023  -0.00606  -0.00333  -0.00673  -0.00405
           D9          22.97711  24.78420  25.54127  25.13273  23.51553
           D10        -27.03535 -20.69212 -15.15504 -10.43636  -6.09899
           D11        167.68928 169.31888 171.78193 174.51751 177.39211
           D12       -150.52427-149.24476-149.88008-152.06626-155.62280
           D13        159.46326 165.27893 169.42361 172.36465 174.76268
           D14         -5.81210  -4.71008  -3.63942  -2.68148  -1.74622
           D15         -0.01363   0.00178  -0.02294   0.00365  -0.00161
           D16        146.99784 146.45908 147.11460 149.15902 152.56235
           D17       -147.01096-146.42158-147.17970-149.11904-152.56185
           D18          0.00051   0.03573  -0.04215   0.03632   0.00211
           D19        -22.96312 -24.78482 -25.50992 -25.13396 -23.51427
           D20        150.55537 149.26947 149.88955 152.07844 155.63010
           D21         27.06379  20.68289  15.19542  10.41230   6.10089
           D22       -159.41772-165.26283-169.40511-172.37530-174.75474
           D23       -167.70068-169.36376-171.72491-174.54044-177.39653
           D24          5.81781   4.69053   3.67456   2.67196   1.74784
           D25         25.60580  28.05893  29.37408  29.41097  27.98534
           D26       -167.32415-163.21628-159.88148-157.61966-156.72038
           D27       -147.82845-145.93105-145.97878-147.77291-151.14931
           D28         19.24161  22.79374  24.76566  25.19646  24.14497
                          11
     Eigenvalues --  -307.17457
           R1           1.46675
           R2           1.35125
           R3           1.09477
           R4           1.34119
           R5           1.09432
           R6           2.42526
           R7           1.39241
           R8           1.09429
           R9           1.34112
           R10          1.39242
           R11          1.09426
           R12          1.46676
           R13          1.09432
           R14          1.09478
           A1         125.98479
           A2         115.95162
           A3         118.02246
           A4         126.63698
           A5         117.37913
           A6         115.97967
           A7         104.02434
           A8         125.75579
           A9         122.70961
           A10        129.52372
           A11        111.50392
           A12        104.01233
           A13        129.52215
           A14        125.74971
           A15        122.72330
           A16        111.49659
           A17        126.64178
           A18        115.97321
           A19        117.38059
           A20        125.99016
           A21        118.02791
           A22        115.94096
           D1         -24.03784
           D2         156.74339
           D3         158.35359
           D4         -20.86519
           D5          -0.00474
           D6        -177.57364
           D7         177.55938
           D8          -0.00952
           D9          19.85615
           D10         -2.28264
           D11        179.90589
           D12       -160.91554
           D13        176.94567
           D14         -0.86580
           D15          0.01386
           D16        158.16581
           D17       -158.13513
           D18          0.01682
           D19        -19.88200
           D20        160.90734
           D21          2.24790
           D22       -176.96276
           D23       -179.93074
           D24          0.85859
           D25         24.06154
           D26       -158.32485
           D27       -156.73760
           D28         20.87601
                          Input orientation:                          
 ---------------------------------------------------------------------
 Center     Atomic      Atomic             Coordinates (Angstroms)
 Number     Number       Type             X           Y           Z
 ---------------------------------------------------------------------
      1          6           0        0.237549    0.028353   -0.243996
      2          6           0       -0.046853   -0.083415    1.190572
      3          6           0        0.846905   -0.038520    2.189559
      4          6           0        2.780933    1.039404    1.199859
      5          6           0        2.405203    1.283572   -0.064183
      6          6           0        1.315087    0.629018   -0.795341
      7          1           0       -0.520830   -0.385450   -0.916418
      8          1           0       -1.089981   -0.230505    1.486854
      9          1           0        2.985744    2.041667   -0.598792
     10          1           0        1.377191    0.672402   -1.887495
     11          8           0        2.226486    0.079387    2.042341
     12          1           0        3.606815    1.569149    1.684301
     13          1           0        0.562003   -0.127584    3.242349
 ---------------------------------------------------------------------
                    Distance matrix (angstroms):
                    1          2          3          4          5
     1  C    0.000000
     2  C    1.466753   0.000000
     3  C    2.509577   1.341191   0.000000
     4  C    3.094470   3.042563   2.425262   0.000000
     5  C    2.511300   3.075003   3.042297   1.341116   0.000000
     6  C    1.351246   2.511233   3.094257   2.509571   1.466761
     7  H    1.094770   2.180661   3.411473   4.172586   3.474710
     8  H    2.196631   1.094319   2.069343   4.083995   4.112719
     9  H    3.425184   4.112718   4.083713   2.069208   1.094323
    10  H    2.101112   3.474717   4.172407   3.411295   2.180551
    11  O    3.030810   2.433123   1.392415   1.392416   2.432991
    12  H    4.176642   4.040301   3.233727   1.094255   2.140706
    13  H    3.504881   2.140664   1.094289   3.233772   4.040037
                    6          7          8          9         10
     6  C    0.000000
     7  H    2.101046   0.000000
     8  H    3.425135   2.474602   0.000000
     9  H    2.196658   4.276429   5.111186   0.000000
    10  H    1.094778   2.380027   4.276496   2.474487   0.000000
    11  O    3.030706   4.064243   3.376915   3.376773   4.064059
    12  H    3.504924   5.255630   5.033651   2.412781   4.305009
    13  H    4.176424   4.305155   2.412759   5.033342   5.255455
                   11         12         13
    11  O    0.000000
    12  H    2.062254   0.000000
    13  H    2.062367   3.818023   0.000000
 Stoichiometry    C6H6O
 Framework group  C1[X(C6H6O)]
 Deg. of freedom    33
 Full point group                 C1      NOp   1
 Largest Abelian subgroup         C1      NOp   1
 Largest concise Abelian subgroup C1      NOp   1
                         Standard orientation:                         
 ---------------------------------------------------------------------
 Center     Atomic      Atomic             Coordinates (Angstroms)
 Number     Number       Type             X           Y           Z
 ---------------------------------------------------------------------
      1          6           0        0.701884    1.449465    0.115250
      2          6           0        1.542992    0.287896   -0.192417
      3          6           0        1.194694   -1.002954   -0.086637
      4          6           0       -1.230174   -0.959309   -0.086505
      5          6           0       -1.531514    0.343204   -0.192564
      6          6           0       -0.649145    1.473726    0.115219
      7          1           0        1.233073    2.383266    0.325906
      8          1           0        2.564765    0.482393   -0.532543
      9          1           0       -2.545594    0.574354   -0.532790
     10          1           0       -1.146571    2.425922    0.325999
     11          8           0       -0.026700   -1.480406    0.381394
     12          1           0       -1.940947   -1.753104   -0.335677
     13          1           0        1.876459   -1.821747   -0.336123
 ---------------------------------------------------------------------
 Rotational constants (GHZ):      3.8571649      3.7386183      1.9676475

 **********************************************************************

            Population analysis using the SCF density.

 **********************************************************************

 Orbital symmetries:
       Occupied  (A) (A) (A) (A) (A) (A) (A) (A) (A) (A) (A) (A)
                 (A) (A) (A) (A) (A) (A) (A) (A) (A) (A) (A) (A)
                 (A)
       Virtual   (A) (A) (A) (A) (A) (A) (A) (A) (A) (A) (A) (A)
                 (A) (A) (A) (A) (A) (A) (A) (A) (A) (A) (A) (A)
                 (A) (A) (A) (A) (A) (A) (A) (A) (A) (A) (A) (A)
                 (A) (A) (A) (A) (A) (A) (A) (A) (A) (A) (A) (A)
                 (A) (A) (A) (A) (A) (A) (A) (A) (A) (A) (A) (A)
                 (A) (A) (A) (A) (A) (A) (A) (A) (A) (A) (A) (A)
                 (A) (A) (A) (A) (A) (A) (A) (A) (A) (A) (A) (A)
                 (A) (A) (A) (A) (A) (A) (A) (A) (A) (A) (A) (A)
                 (A) (A) (A) (A) (A) (A) (A)
 The electronic state is 1-A.
 Alpha  occ. eigenvalues --  -19.16295 -10.25138 -10.25137 -10.19790 -10.19729
 Alpha  occ. eigenvalues --  -10.19275 -10.19269  -1.05148  -0.80812  -0.78398
 Alpha  occ. eigenvalues --   -0.69786  -0.66394  -0.56101  -0.54394  -0.51939
 Alpha  occ. eigenvalues --   -0.46418  -0.45324  -0.43046  -0.42503  -0.39542
 Alpha  occ. eigenvalues --   -0.35744  -0.32242  -0.31334  -0.28915  -0.20089
 Alpha virt. eigenvalues --   -0.05832   0.03607   0.05844   0.07858   0.09643
 Alpha virt. eigenvalues --    0.10142   0.12602   0.13412   0.14066   0.15245
 Alpha virt. eigenvalues --    0.24432   0.27678   0.32099   0.34807   0.38070
 Alpha virt. eigenvalues --    0.38961   0.41645   0.41893   0.43854   0.43950
 Alpha virt. eigenvalues --    0.46082   0.47373   0.50012   0.50024   0.53073
 Alpha virt. eigenvalues --    0.53191   0.55685   0.59714   0.60153   0.62636
 Alpha virt. eigenvalues --    0.63253   0.65470   0.66205   0.66445   0.67978
 Alpha virt. eigenvalues --    0.69677   0.69710   0.76140   0.78114   0.78702
 Alpha virt. eigenvalues --    0.84944   0.88380   0.92655   1.01590   1.06700
 Alpha virt. eigenvalues --    1.15195   1.16765   1.19670   1.21520   1.25685
 Alpha virt. eigenvalues --    1.26486   1.31617   1.35199   1.43750   1.52342
 Alpha virt. eigenvalues --    1.57472   1.61674   1.62703   1.66683   1.69563
 Alpha virt. eigenvalues --    1.69644   1.71481   1.71688   1.74498   1.77069
 Alpha virt. eigenvalues --    1.77385   1.83780   1.86219   1.89393   1.92319
 Alpha virt. eigenvalues --    1.94417   1.97476   1.98020   1.98021   2.00419
 Alpha virt. eigenvalues --    2.04161   2.04900   2.11739   2.13235   2.15928
 Alpha virt. eigenvalues --    2.24560   2.33330   2.33615   2.41878   2.42892
 Alpha virt. eigenvalues --    2.43221   2.53233   2.58036   2.60235   2.66390
 Alpha virt. eigenvalues --    2.73063   2.73758   2.81069   2.81545   2.86001
 Alpha virt. eigenvalues --    2.96897   3.02079   3.04014   3.11885   3.17873
 Alpha virt. eigenvalues --    3.41570   3.53924   3.55057
          Condensed to atoms (all electrons):
               1          2          3          4          5          6
     1  C    4.891265   0.280385  -0.011739  -0.036960  -0.011910   0.544524
     2  C    0.280385   5.056454   0.505451  -0.002816  -0.019423  -0.011900
     3  C   -0.011739   0.505451   4.703061  -0.032197  -0.002797  -0.036983
     4  C   -0.036960  -0.002816  -0.032197   4.702977   0.505463  -0.011754
     5  C   -0.011910  -0.019423  -0.002797   0.505463   5.056553   0.280345
     6  C    0.544524  -0.011900  -0.036983  -0.011754   0.280345   4.891368
     7  H    0.405485  -0.062244   0.011179  -0.000533   0.012877  -0.046200
     8  H   -0.047605   0.379956  -0.027535   0.000855  -0.001381   0.012122
     9  H    0.012122  -0.001381   0.000855  -0.027522   0.379934  -0.047598
    10  H   -0.046193   0.012878  -0.000533   0.011179  -0.062247   0.405479
    11  O   -0.001623  -0.062247   0.332877   0.332895  -0.062264  -0.001627
    12  H   -0.000305  -0.000819   0.003984   0.410114  -0.061936   0.009535
    13  H    0.009531  -0.061920   0.410091   0.003986  -0.000820  -0.000304
               7          8          9         10         11         12
     1  C    0.405485  -0.047605   0.012122  -0.046193  -0.001623  -0.000305
     2  C   -0.062244   0.379956  -0.001381   0.012878  -0.062247  -0.000819
     3  C    0.011179  -0.027535   0.000855  -0.000533   0.332877   0.003984
     4  C   -0.000533   0.000855  -0.027522   0.011179   0.332895   0.410114
     5  C    0.012877  -0.001381   0.379934  -0.062247  -0.062264  -0.061936
     6  C   -0.046200   0.012122  -0.047598   0.405479  -0.001627   0.009535
     7  H    0.714581  -0.010795  -0.000312  -0.018598   0.000013   0.000024
     8  H   -0.010795   0.699476   0.000028  -0.000312   0.004086   0.000054
     9  H   -0.000312   0.000028   0.699482  -0.010798   0.004088  -0.010237
    10  H   -0.018598  -0.000312  -0.010798   0.714576   0.000013  -0.000271
    11  O    0.000013   0.004086   0.004088   0.000013   7.847251  -0.039068
    12  H    0.000024   0.000054  -0.010237  -0.000271  -0.039068   0.672370
    13  H   -0.000271  -0.010235   0.000054   0.000024  -0.039064  -0.000099
              13
     1  C    0.009531
     2  C   -0.061920
     3  C    0.410091
     4  C    0.003986
     5  C   -0.000820
     6  C   -0.000304
     7  H   -0.000271
     8  H   -0.010235
     9  H    0.000054
    10  H    0.000024
    11  O   -0.039064
    12  H   -0.000099
    13  H    0.672358
 Mulliken charges:
               1
     1  C    0.013022
     2  C   -0.012376
     3  C    0.144285
     4  C    0.144313
     5  C   -0.012396
     6  C    0.012993
     7  H   -0.005207
     8  H    0.001285
     9  H    0.001286
    10  H   -0.005196
    11  O   -0.315330
    12  H    0.016654
    13  H    0.016668
 Sum of Mulliken charges =   0.00000
 Mulliken charges with hydrogens summed into heavy atoms:
               1
     1  C    0.007815
     2  C   -0.011091
     3  C    0.160953
     4  C    0.160967
     5  C   -0.011111
     6  C    0.007797
    11  O   -0.315330
 Electronic spatial extent (au):  <R**2>=            630.7919
 Charge=              0.0000 electrons
 Dipole moment (field-independent basis, Debye):
    X=              0.0088    Y=              0.5029    Z=             -0.8198  Tot=              0.9618
 Quadrupole moment (field-independent basis, Debye-Ang):
   XX=            -35.3992   YY=            -38.8954   ZZ=            -44.1166
   XY=             -0.0622   XZ=              0.0325   YZ=              1.8305
 Traceless Quadrupole moment (field-independent basis, Debye-Ang):
   XX=              4.0712   YY=              0.5750   ZZ=             -4.6462
   XY=             -0.0622   XZ=              0.0325   YZ=              1.8305
 Octapole moment (field-independent basis, Debye-Ang**2):
  XXX=             -0.2246  YYY=             -1.9682  ZZZ=              2.2003  XYY=              0.1128
  XXY=             -4.1453  XXZ=             -3.7605  XZZ=             -0.0558  YZZ=             -3.0594
  YYZ=             -0.5947  XYZ=              0.0579
 Hexadecapole moment (field-independent basis, Debye-Ang**3):
 XXXX=           -379.1530 YYYY=           -375.5695 ZZZZ=            -59.8629 XXXY=              0.6548
 XXXZ=              0.0291 YYYX=             -0.6001 YYYZ=              7.9384 ZZZX=             -0.0533
 ZZZY=             -2.9358 XXYY=           -114.1865 XXZZ=            -81.2609 YYZZ=            -78.5549
 XXYZ=              0.5659 YYXZ=              0.1201 ZZXY=              0.0446
 N-N= 2.720793667909D+02 E-N=-1.257782360173D+03  KE= 3.038964174733D+02
 1\1\GINC-QC0019\Scan\RB3LYP\SVP\C6H6O1\ELIOT\02-Oct-2018\0\\# b3lyp/sv
 p opt=modredundant\\Title Card Required\\0,1\C,0.2375491713,0.02835342
 89,-0.2439964049\C,-0.0468533738,-0.0834153813,1.190571913\C,0.8469046
 862,-0.0385200902,2.1895588508\C,2.7809332352,1.039404166,1.1998585908
 \C,2.405203209,1.283571674,-0.0641830252\C,1.3150870286,0.629017554,-0
 .7953411804\H,-0.5208301428,-0.3854496843,-0.9164175298\H,-1.089981497
 1,-0.2305050435,1.4868543264\H,2.985744428,2.0416671249,-0.5987915881\
 H,1.3771914189,0.6724017547,-1.8874952067\O,2.2264857716,0.0793866296,
 2.0423407173\H,3.6068152996,1.5691487115,1.6843008589\H,0.5620026753,-
 0.1275838543,3.2423485379\\Version=ES64L-G09RevE.01\State=1-A\HF=-307.
 1685437,-307.1727596,-307.1700894,-307.1658722,-307.1636722,-307.16480
 86,-307.1682089,-307.1720129,-307.174838,-307.175858,-307.1745728\RMSD
 =8.881e-09,7.607e-09,6.516e-09,5.445e-09,8.596e-09,8.535e-09,3.719e-09
 ,7.764e-09,4.817e-09,2.696e-09,7.966e-09\PG=C01 [X(C6H6O1)]\\@


 OLD AGE AND TREACHERY WILL ALWAYS PREVAIL OVER YOUTH AND SKILL.
 Job cpu time:       0 days  0 hours 34 minutes 11.5 seconds.
 File lengths (MBytes):  RWF=     13 Int=      0 D2E=      0 Chk=      3 Scr=      1
 Normal termination of Gaussian 09 at Tue Oct  2 16:30:00 2018.
