 Entering Gaussian System, Link 0=/home/eliot/software/g09E01/g09
 Initial command:
 /home/eliot/software/g09E01/l1.exe "/tmp/Gau-8546.inp" -scrdir="/tmp/"
 Entering Link 1 = /home/eliot/software/g09E01/l1.exe PID=      8548.
  
 Copyright (c) 1988,1990,1992,1993,1995,1998,2003,2009,2015,
            Gaussian, Inc.  All Rights Reserved.
  
 This is part of the Gaussian(R) 09 program.  It is based on
 the Gaussian(R) 03 system (copyright 2003, Gaussian, Inc.),
 the Gaussian(R) 98 system (copyright 1998, Gaussian, Inc.),
 the Gaussian(R) 94 system (copyright 1995, Gaussian, Inc.),
 the Gaussian 92(TM) system (copyright 1992, Gaussian, Inc.),
 the Gaussian 90(TM) system (copyright 1990, Gaussian, Inc.),
 the Gaussian 88(TM) system (copyright 1988, Gaussian, Inc.),
 the Gaussian 86(TM) system (copyright 1986, Carnegie Mellon
 University), and the Gaussian 82(TM) system (copyright 1983,
 Carnegie Mellon University). Gaussian is a federally registered
 trademark of Gaussian, Inc.
  
 This software contains proprietary and confidential information,
 including trade secrets, belonging to Gaussian, Inc.
  
 This software is provided under written license and may be
 used, copied, transmitted, or stored only in accord with that
 written license.
  
 The following legend is applicable only to US Government
 contracts under FAR:
  
                    RESTRICTED RIGHTS LEGEND
  
 Use, reproduction and disclosure by the US Government is
 subject to restrictions as set forth in subparagraphs (a)
 and (c) of the Commercial Computer Software - Restricted
 Rights clause in FAR 52.227-19.
  
 Gaussian, Inc.
 340 Quinnipiac St., Bldg. 40, Wallingford CT 06492
  
  
 ---------------------------------------------------------------
 Warning -- This program may not be used in any manner that
 competes with the business of Gaussian, Inc. or will provide
 assistance to any competitor of Gaussian, Inc.  The licensee
 of this program is prohibited from giving any competitor of
 Gaussian, Inc. access to this program.  By using this program,
 the user acknowledges that Gaussian, Inc. is engaged in the
 business of creating and licensing software in the field of
 computational chemistry and represents and warrants to the
 licensee that it is not a competitor of Gaussian, Inc. and that
 it will not use this program in any manner prohibited above.
 ---------------------------------------------------------------
  

 Cite this work as:
 Gaussian 09, Revision E.01,
 M. J. Frisch, G. W. Trucks, H. B. Schlegel, G. E. Scuseria, 
 M. A. Robb, J. R. Cheeseman, G. Scalmani, V. Barone, B. Mennucci, 
 G. A. Petersson, H. Nakatsuji, M. Caricato, X. Li, H. P. Hratchian, 
 A. F. Izmaylov, J. Bloino, G. Zheng, J. L. Sonnenberg, M. Hada, 
 M. Ehara, K. Toyota, R. Fukuda, J. Hasegawa, M. Ishida, T. Nakajima, 
 Y. Honda, O. Kitao, H. Nakai, T. Vreven, J. A. Montgomery, Jr., 
 J. E. Peralta, F. Ogliaro, M. Bearpark, J. J. Heyd, E. Brothers, 
 K. N. Kudin, V. N. Staroverov, T. Keith, R. Kobayashi, J. Normand, 
 K. Raghavachari, A. Rendell, J. C. Burant, S. S. Iyengar, J. Tomasi, 
 M. Cossi, N. Rega, J. M. Millam, M. Klene, J. E. Knox, J. B. Cross, 
 V. Bakken, C. Adamo, J. Jaramillo, R. Gomperts, R. E. Stratmann, 
 O. Yazyev, A. J. Austin, R. Cammi, C. Pomelli, J. W. Ochterski, 
 R. L. Martin, K. Morokuma, V. G. Zakrzewski, G. A. Voth, 
 P. Salvador, J. J. Dannenberg, S. Dapprich, A. D. Daniels, 
 O. Farkas, J. B. Foresman, J. V. Ortiz, J. Cioslowski, 
 and D. J. Fox, Gaussian, Inc., Wallingford CT, 2013.
 
 ******************************************
 Gaussian 09:  ES64L-G09RevE.01 30-Nov-2015
                 5-Oct-2018 
 ******************************************
 %nproc=2
 Will use up to    2 processors via shared memory.
 --------------
 # opt hf/3-21g
 --------------
 1/18=20,19=15,38=1/1,3;
 2/9=110,12=2,17=6,18=5,40=1/2;
 3/5=5,11=9,16=1,25=1,30=1,71=1/1,2,3;
 4//1;
 5/5=2,38=5/2;
 6/7=2,8=2,9=2,10=2,28=1/1;
 7//1,2,3,16;
 1/18=20,19=15/3(2);
 2/9=110/2;
 99//99;
 2/9=110/2;
 3/5=5,11=9,16=1,25=1,30=1,71=1/1,2,3;
 4/5=5,16=3,69=1/1;
 5/5=2,38=5/2;
 7//1,2,3,16;
 1/18=20,19=15/3(-5);
 2/9=110/2;
 6/7=2,8=2,9=2,10=2,19=2,28=1/1;
 99/9=1/99;
 -------------
 benzox-hf.log
 -------------
 Symbolic Z-matrix:
 Charge =  0 Multiplicity = 1
 C                    -1.43478   0.73216   0.10454 
 C                    -0.33131   1.42727  -0.15249 
 C                     0.96754   0.73836  -0.32372 
 C                     0.96755  -0.73835  -0.32373 
 C                    -0.33131  -1.42727  -0.15249 
 C                    -1.43477  -0.73216   0.10454 
 H                    -2.37298   1.23738   0.25105 
 H                    -0.36014   2.49747  -0.25508 
 H                    -0.36013  -2.49747  -0.25509 
 H                    -2.37297  -1.23739   0.25104 
 O                     1.44622   0.        0.77249 
 H                     1.7395   -1.26788  -0.85587 
 H                     1.7395    1.26789  -0.85586 
 

 GradGradGradGradGradGradGradGradGradGradGradGradGradGradGradGradGradGrad
 Berny optimization.
 Initialization pass.
                           ----------------------------
                           !    Initial Parameters    !
                           ! (Angstroms and Degrees)  !
 --------------------------                            --------------------------
 ! Name  Definition              Value          Derivative Info.                !
 --------------------------------------------------------------------------------
 ! R1    R(1,2)                  1.3292         estimate D2E/DX2                !
 ! R2    R(1,6)                  1.4643         estimate D2E/DX2                !
 ! R3    R(1,7)                  1.0756         estimate D2E/DX2                !
 ! R4    R(2,3)                  1.4802         estimate D2E/DX2                !
 ! R5    R(2,8)                  1.0755         estimate D2E/DX2                !
 ! R6    R(3,4)                  1.4767         estimate D2E/DX2                !
 ! R7    R(3,11)                 1.4057         estimate D2E/DX2                !
 ! R8    R(3,13)                 1.0768         estimate D2E/DX2                !
 ! R9    R(4,5)                  1.4802         estimate D2E/DX2                !
 ! R10   R(4,11)                 1.4057         estimate D2E/DX2                !
 ! R11   R(4,12)                 1.0768         estimate D2E/DX2                !
 ! R12   R(5,6)                  1.3292         estimate D2E/DX2                !
 ! R13   R(5,9)                  1.0755         estimate D2E/DX2                !
 ! R14   R(6,10)                 1.0756         estimate D2E/DX2                !
 ! A1    A(2,1,6)              121.5291         estimate D2E/DX2                !
 ! A2    A(2,1,7)              120.3188         estimate D2E/DX2                !
 ! A3    A(6,1,7)              118.0156         estimate D2E/DX2                !
 ! A4    A(1,2,3)              120.4931         estimate D2E/DX2                !
 ! A5    A(1,2,8)              121.1014         estimate D2E/DX2                !
 ! A6    A(3,2,8)              118.3998         estimate D2E/DX2                !
 ! A7    A(2,3,4)              117.7381         estimate D2E/DX2                !
 ! A8    A(2,3,11)             116.9408         estimate D2E/DX2                !
 ! A9    A(2,3,13)             117.2175         estimate D2E/DX2                !
 ! A10   A(4,3,13)             119.456          estimate D2E/DX2                !
 ! A11   A(11,3,13)            113.5508         estimate D2E/DX2                !
 ! A12   A(3,4,5)              117.7373         estimate D2E/DX2                !
 ! A13   A(3,4,12)             119.4573         estimate D2E/DX2                !
 ! A14   A(5,4,11)             116.9399         estimate D2E/DX2                !
 ! A15   A(5,4,12)             117.2172         estimate D2E/DX2                !
 ! A16   A(11,4,12)            113.5515         estimate D2E/DX2                !
 ! A17   A(4,5,6)              120.4927         estimate D2E/DX2                !
 ! A18   A(4,5,9)              118.3993         estimate D2E/DX2                !
 ! A19   A(6,5,9)              121.1023         estimate D2E/DX2                !
 ! A20   A(1,6,5)              121.53           estimate D2E/DX2                !
 ! A21   A(1,6,10)             118.0154         estimate D2E/DX2                !
 ! A22   A(5,6,10)             120.318          estimate D2E/DX2                !
 ! D1    D(6,1,2,3)             -5.7544         estimate D2E/DX2                !
 ! D2    D(6,1,2,8)            173.3619         estimate D2E/DX2                !
 ! D3    D(7,1,2,3)            178.5782         estimate D2E/DX2                !
 ! D4    D(7,1,2,8)             -2.3055         estimate D2E/DX2                !
 ! D5    D(2,1,6,5)             -0.0002         estimate D2E/DX2                !
 ! D6    D(2,1,6,10)          -175.7631         estimate D2E/DX2                !
 ! D7    D(7,1,6,5)            175.7635         estimate D2E/DX2                !
 ! D8    D(7,1,6,10)             0.0007         estimate D2E/DX2                !
 ! D9    D(1,2,3,4)              5.5415         estimate D2E/DX2                !
 ! D10   D(1,2,3,11)           -60.9773         estimate D2E/DX2                !
 ! D11   D(1,2,3,13)           159.0805         estimate D2E/DX2                !
 ! D12   D(8,2,3,4)           -173.5983         estimate D2E/DX2                !
 ! D13   D(8,2,3,11)           119.8829         estimate D2E/DX2                !
 ! D14   D(8,2,3,13)           -20.0594         estimate D2E/DX2                !
 ! D15   D(2,3,4,5)             -0.0007         estimate D2E/DX2                !
 ! D16   D(2,3,4,12)           152.9297         estimate D2E/DX2                !
 ! D17   D(13,3,4,5)          -152.9307         estimate D2E/DX2                !
 ! D18   D(13,3,4,12)           -0.0002         estimate D2E/DX2                !
 ! D19   D(3,4,5,6)             -5.5405         estimate D2E/DX2                !
 ! D20   D(3,4,5,9)            173.5985         estimate D2E/DX2                !
 ! D21   D(11,4,5,6)            60.9779         estimate D2E/DX2                !
 ! D22   D(11,4,5,9)          -119.8831         estimate D2E/DX2                !
 ! D23   D(12,4,5,6)          -159.0803         estimate D2E/DX2                !
 ! D24   D(12,4,5,9)            20.0587         estimate D2E/DX2                !
 ! D25   D(4,5,6,1)              5.7544         estimate D2E/DX2                !
 ! D26   D(4,5,6,10)          -178.5791         estimate D2E/DX2                !
 ! D27   D(9,5,6,1)           -173.3611         estimate D2E/DX2                !
 ! D28   D(9,5,6,10)             2.3054         estimate D2E/DX2                !
 --------------------------------------------------------------------------------
 Trust Radius=3.00D-01 FncErr=1.00D-07 GrdErr=1.00D-07
 Number of steps in this run=     74 maximum allowed number of steps=    100.
 GradGradGradGradGradGradGradGradGradGradGradGradGradGradGradGradGradGrad

                          Input orientation:                          
 ---------------------------------------------------------------------
 Center     Atomic      Atomic             Coordinates (Angstroms)
 Number     Number       Type             X           Y           Z
 ---------------------------------------------------------------------
      1          6           0       -1.434780    0.732160    0.104540
      2          6           0       -0.331310    1.427270   -0.152490
      3          6           0        0.967540    0.738360   -0.323720
      4          6           0        0.967550   -0.738350   -0.323730
      5          6           0       -0.331310   -1.427270   -0.152490
      6          6           0       -1.434770   -0.732160    0.104540
      7          1           0       -2.372980    1.237380    0.251050
      8          1           0       -0.360140    2.497470   -0.255080
      9          1           0       -0.360130   -2.497470   -0.255090
     10          1           0       -2.372970   -1.237390    0.251040
     11          8           0        1.446220    0.000000    0.772490
     12          1           0        1.739500   -1.267880   -0.855870
     13          1           0        1.739500    1.267890   -0.855860
 ---------------------------------------------------------------------
                    Distance matrix (angstroms):
                    1          2          3          4          5
     1  C    0.000000
     2  C    1.329244   0.000000
     3  C    2.440202   1.480178   0.000000
     4  C    2.849036   2.531061   1.476710   0.000000
     5  C    2.438616   2.854540   2.531064   1.480193   0.000000
     6  C    1.464320   2.438612   2.849022   2.440204   1.329235
     7  H    1.075608   2.089813   3.426143   3.923394   3.381068
     8  H    2.097736   1.075492   2.204975   3.498286   3.926186
     9  H    3.422677   3.926187   3.498287   2.204983   1.075493
    10  H    2.186502   3.381069   3.923384   3.426146   2.089801
    11  O    3.046699   2.460142   1.405698   1.405697   2.460142
    12  H    3.872803   3.470855   2.214521   1.076792   2.192807
    13  H    3.359379   2.192803   1.076800   2.214513   3.470860
                    6          7          8          9         10
     6  C    0.000000
     7  H    2.186502   0.000000
     8  H    3.422669   2.428069   0.000000
     9  H    2.097738   4.272803   4.994940   0.000000
    10  H    1.075611   2.474770   4.272800   2.428064   0.000000
    11  O    3.046690   4.048370   3.249030   3.249027   4.048365
    12  H    3.359371   4.941062   4.352849   2.506247   4.258942
    13  H    3.872797   4.258952   2.506251   4.352850   4.941059
                   11         12         13
    11  O    0.000000
    12  H    2.084488   0.000000
    13  H    2.084486   2.535770   0.000000
 Stoichiometry    C6H6O
 Framework group  C1[X(C6H6O)]
 Deg. of freedom    33
 Full point group                 C1      NOp   1
 Largest Abelian subgroup         C1      NOp   1
 Largest concise Abelian subgroup C1      NOp   1
                         Standard orientation:                         
 ---------------------------------------------------------------------
 Center     Atomic      Atomic             Coordinates (Angstroms)
 Number     Number       Type             X           Y           Z
 ---------------------------------------------------------------------
      1          6           0        1.434782   -0.732156    0.104540
      2          6           0        0.331314   -1.427268   -0.152490
      3          6           0       -0.967538   -0.738360   -0.323720
      4          6           0       -0.967550    0.738350   -0.323730
      5          6           0        0.331309    1.427272   -0.152490
      6          6           0        1.434770    0.732164    0.104540
      7          1           0        2.372983   -1.237375    0.251050
      8          1           0        0.360145   -2.497468   -0.255080
      9          1           0        0.360127    2.497472   -0.255090
     10          1           0        2.372969    1.237395    0.251040
     11          8           0       -1.446219   -0.000001    0.772490
     12          1           0       -1.739501    1.267878   -0.855870
     13          1           0       -1.739497   -1.267892   -0.855860
 ---------------------------------------------------------------------
 Rotational constants (GHZ):      4.6714309      3.6042963      2.3023279
 Standard basis: 3-21G (6D, 7F)
 There are    75 symmetry adapted cartesian basis functions of A   symmetry.
 There are    75 symmetry adapted basis functions of A   symmetry.
    75 basis functions,   123 primitive gaussians,    75 cartesian basis functions
    25 alpha electrons       25 beta electrons
       nuclear repulsion energy       282.5309708325 Hartrees.
 NAtoms=   13 NActive=   13 NUniq=   13 SFac= 1.00D+00 NAtFMM=   60 NAOKFM=F Big=F
 Integral buffers will be    131072 words long.
 Raffenetti 1 integral format.
 Two-electron integral symmetry is turned on.
 One-electron integrals computed using PRISM.
 NBasis=    75 RedAO= T EigKep=  2.09D-03  NBF=    75
 NBsUse=    75 1.00D-06 EigRej= -1.00D+00 NBFU=    75
 ExpMin= 1.83D-01 ExpMax= 3.22D+02 ExpMxC= 3.22D+02 IAcc=1 IRadAn=         1 AccDes= 0.00D+00
 Harris functional with IExCor=  205 and IRadAn=       1 diagonalized for initial guess.
 HarFok:  IExCor=  205 AccDes= 0.00D+00 IRadAn=         1 IDoV= 1 UseB2=F ITyADJ=14
 ICtDFT=  3500011 ScaDFX=  1.000000  1.000000  1.000000  1.000000
 FoFCou: FMM=F IPFlag=           0 FMFlag=      100000 FMFlg1=           0
         NFxFlg=           0 DoJE=T BraDBF=F KetDBF=T FulRan=T
         wScrn=  0.000000 ICntrl=     500 IOpCl=  0 I1Cent=   200000004 NGrid=           0
         NMat0=    1 NMatS0=      1 NMatT0=    0 NMatD0=    1 NMtDS0=    0 NMtDT0=    0
 Petite list used in FoFCou.
 Keep R1 ints in memory in canonical form, NReq=4928148.
 Requested convergence on RMS density matrix=1.00D-08 within 128 cycles.
 Requested convergence on MAX density matrix=1.00D-06.
 Requested convergence on             energy=1.00D-06.
 No special actions if energy rises.
 SCF Done:  E(RHF) =  -303.760861931     A.U. after   13 cycles
            NFock= 13  Conv=0.23D-08     -V/T= 2.0012

 **********************************************************************

            Population analysis using the SCF density.

 **********************************************************************

 Orbital symmetries:
       Occupied  (A) (A) (A) (A) (A) (A) (A) (A) (A) (A) (A) (A)
                 (A) (A) (A) (A) (A) (A) (A) (A) (A) (A) (A) (A)
                 (A)
       Virtual   (A) (A) (A) (A) (A) (A) (A) (A) (A) (A) (A) (A)
                 (A) (A) (A) (A) (A) (A) (A) (A) (A) (A) (A) (A)
                 (A) (A) (A) (A) (A) (A) (A) (A) (A) (A) (A) (A)
                 (A) (A) (A) (A) (A) (A) (A) (A) (A) (A) (A) (A)
                 (A) (A)
 The electronic state is 1-A.
 Alpha  occ. eigenvalues --  -20.46799 -11.23827 -11.23783 -11.18823 -11.18771
 Alpha  occ. eigenvalues --  -11.18503 -11.18486  -1.45104  -1.12635  -1.03595
 Alpha  occ. eigenvalues --   -0.94695  -0.86918  -0.82165  -0.74483  -0.68175
 Alpha  occ. eigenvalues --   -0.65689  -0.64547  -0.61228  -0.55426  -0.52657
 Alpha  occ. eigenvalues --   -0.51229  -0.49617  -0.43515  -0.39989  -0.32867
 Alpha virt. eigenvalues --    0.10782   0.22131   0.25062   0.31120   0.31476
 Alpha virt. eigenvalues --    0.34853   0.35279   0.36705   0.39138   0.41003
 Alpha virt. eigenvalues --    0.45852   0.47836   0.51371   0.53230   0.72257
 Alpha virt. eigenvalues --    0.79061   0.84405   0.93259   0.95179   0.96172
 Alpha virt. eigenvalues --    0.98570   1.01926   1.04104   1.04757   1.05508
 Alpha virt. eigenvalues --    1.09948   1.11367   1.14443   1.14463   1.25402
 Alpha virt. eigenvalues --    1.29968   1.30790   1.35119   1.39907   1.41468
 Alpha virt. eigenvalues --    1.49521   1.49659   1.57710   1.58897   1.69728
 Alpha virt. eigenvalues --    1.71917   1.75352   1.81800   1.94901   2.03034
 Alpha virt. eigenvalues --    2.05390   2.34170   2.39452   2.83953   3.44174
          Condensed to atoms (all electrons):
               1          2          3          4          5          6
     1  C    5.182455   0.532541  -0.078660  -0.001509  -0.103737   0.364261
     2  C    0.532541   5.301906   0.247506  -0.062376   0.009617  -0.103741
     3  C   -0.078660   0.247506   5.438693  -0.010785  -0.062378  -0.001508
     4  C   -0.001509  -0.062376  -0.010785   5.438690   0.247512  -0.078661
     5  C   -0.103737   0.009617  -0.062378   0.247512   5.301897   0.532540
     6  C    0.364261  -0.103741  -0.001508  -0.078661   0.532540   5.182458
     7  H    0.398778  -0.035452   0.002534  -0.000039   0.002009  -0.030882
     8  H   -0.034811   0.399177  -0.034146   0.001777  -0.000143   0.002399
     9  H    0.002399  -0.000143   0.001777  -0.034146   0.399177  -0.034811
    10  H   -0.030883   0.002009  -0.000039   0.002534  -0.035454   0.398778
    11  O    0.003000  -0.051392   0.141591   0.141587  -0.051391   0.003000
    12  H    0.000107  -0.000346  -0.019017   0.394751  -0.043404   0.002502
    13  H    0.002502  -0.043405   0.394751  -0.019018  -0.000346   0.000107
               7          8          9         10         11         12
     1  C    0.398778  -0.034811   0.002399  -0.030883   0.003000   0.000107
     2  C   -0.035452   0.399177  -0.000143   0.002009  -0.051392  -0.000346
     3  C    0.002534  -0.034146   0.001777  -0.000039   0.141591  -0.019017
     4  C   -0.000039   0.001777  -0.034146   0.002534   0.141587   0.394751
     5  C    0.002009  -0.000143   0.399177  -0.035454  -0.051391  -0.043404
     6  C   -0.030882   0.002399  -0.034811   0.398778   0.003000   0.002502
     7  H    0.421156  -0.001890  -0.000031  -0.000856  -0.000012   0.000000
     8  H   -0.001890   0.421502   0.000001  -0.000031   0.000093  -0.000009
     9  H   -0.000031   0.000001   0.421502  -0.001891   0.000093  -0.000565
    10  H   -0.000856  -0.000031  -0.001891   0.421160  -0.000012  -0.000033
    11  O   -0.000012   0.000093   0.000093  -0.000012   8.421885  -0.027895
    12  H    0.000000  -0.000009  -0.000565  -0.000033  -0.027895   0.454862
    13  H   -0.000033  -0.000565  -0.000009   0.000000  -0.027895   0.001425
              13
     1  C    0.002502
     2  C   -0.043405
     3  C    0.394751
     4  C   -0.019018
     5  C   -0.000346
     6  C    0.000107
     7  H   -0.000033
     8  H   -0.000565
     9  H   -0.000009
    10  H    0.000000
    11  O   -0.027895
    12  H    0.001425
    13  H    0.454866
 Mulliken charges:
               1
     1  C   -0.236443
     2  C   -0.195899
     3  C   -0.020319
     4  C   -0.020318
     5  C   -0.195898
     6  C   -0.236442
     7  H    0.244719
     8  H    0.246646
     9  H    0.246646
    10  H    0.244717
    11  O   -0.552650
    12  H    0.237622
    13  H    0.237621
 Sum of Mulliken charges =   0.00000
 Mulliken charges with hydrogens summed into heavy atoms:
               1
     1  C    0.008276
     2  C    0.050747
     3  C    0.217302
     4  C    0.217303
     5  C    0.050747
     6  C    0.008274
    11  O   -0.552650
 Electronic spatial extent (au):  <R**2>=            574.8221
 Charge=              0.0000 electrons
 Dipole moment (field-independent basis, Debye):
    X=              1.2577    Y=              0.0000    Z=             -2.2456  Tot=              2.5738
 Quadrupole moment (field-independent basis, Debye-Ang):
   XX=            -39.0921   YY=            -35.4207   ZZ=            -45.9149
   XY=             -0.0001   XZ=              4.9737   YZ=             -0.0001
 Traceless Quadrupole moment (field-independent basis, Debye-Ang):
   XX=              1.0504   YY=              4.7219   ZZ=             -5.7723
   XY=             -0.0001   XZ=              4.9737   YZ=             -0.0001
 Octapole moment (field-independent basis, Debye-Ang**2):
  XXX=              4.5027  YYY=              0.0001  ZZZ=              1.5840  XYY=             -2.4895
  XXY=              0.0000  XXZ=             -3.4846  XZZ=             -3.3127  YZZ=              0.0000
  YYZ=             -1.8484  XYZ=              0.0000
 Hexadecapole moment (field-independent basis, Debye-Ang**3):
 XXXX=           -347.1659 YYYY=           -273.1505 ZZZZ=            -80.3512 XXXY=             -0.0004
 XXXZ=             14.3730 YYYX=             -0.0002 YYYZ=             -0.0001 ZZZX=             -0.4377
 ZZZY=              0.0001 XXYY=           -102.1764 XXZZ=            -80.4621 YYZZ=            -68.0283
 XXYZ=             -0.0001 YYXZ=              2.5723 ZZXY=             -0.0001
 N-N= 2.825309708325D+02 E-N=-1.274909768798D+03  KE= 3.033965876998D+02
 Calling FoFJK, ICntrl=      2127 FMM=F ISym2X=0 I1Cent= 0 IOpClX= 0 NMat=1 NMatS=1 NMatT=0.
 ***** Axes restored to original set *****
 -------------------------------------------------------------------
 Center     Atomic                   Forces (Hartrees/Bohr)
 Number     Number              X              Y              Z
 -------------------------------------------------------------------
      1        6          -0.000352138    0.002170712    0.000745526
      2        6          -0.000179960   -0.001399369   -0.001691330
      3        6          -0.010529778    0.040594503   -0.032346435
      4        6          -0.010543003   -0.040596679   -0.032340298
      5        6          -0.000162701    0.001399793   -0.001696215
      6        6          -0.000366636   -0.002170374    0.000746827
      7        1           0.001946367   -0.001707773   -0.000236918
      8        1           0.000329564   -0.002847634    0.000132256
      9        1           0.000328300    0.002848298    0.000133011
     10        1           0.001947693    0.001709310   -0.000236287
     11        8           0.025539760    0.000000064    0.066331718
     12        1          -0.003976572    0.001731004    0.000227688
     13        1          -0.003980897   -0.001731854    0.000230457
 -------------------------------------------------------------------
 Cartesian Forces:  Max     0.066331718 RMS     0.016602960

 GradGradGradGradGradGradGradGradGradGradGradGradGradGradGradGradGradGrad
 Berny optimization.
 FormGI is forming the generalized inverse of G from B-inverse, IUseBI=4.
 Internal  Forces:  Max     0.040231118 RMS     0.007642063
 Search for a local minimum.
 Step number   1 out of a maximum of   74
 All quantities printed in internal units (Hartrees-Bohrs-Radians)
 Mixed Optimization -- RFO/linear search
 Second derivative matrix not updated -- first step.
 ITU=  0
     Eigenvalues ---    0.01499   0.01508   0.01861   0.01982   0.02108
     Eigenvalues ---    0.02474   0.02606   0.02965   0.03120   0.14170
     Eigenvalues ---    0.14870   0.15946   0.15969   0.15998   0.15998
     Eigenvalues ---    0.17980   0.18123   0.21819   0.21963   0.29483
     Eigenvalues ---    0.31610   0.33631   0.34223   0.35844   0.36384
     Eigenvalues ---    0.36385   0.36530   0.36530   0.36544   0.36544
     Eigenvalues ---    0.42906   0.56700   0.58574
 RFO step:  Lambda=-8.83662175D-03 EMin= 1.49865399D-02
 Linear search not attempted -- first point.
 Iteration  1 RMS(Cart)=  0.01723479 RMS(Int)=  0.00017724
 Iteration  2 RMS(Cart)=  0.00014890 RMS(Int)=  0.00012198
 Iteration  3 RMS(Cart)=  0.00000002 RMS(Int)=  0.00012198
 Variable       Old X    -DE/DX   Delta X   Delta X   Delta X     New X
                                 (Linear)    (Quad)   (Total)
    R1        2.51191  -0.00183   0.00000  -0.00339  -0.00340   2.50850
    R2        2.76716  -0.00070   0.00000  -0.00301  -0.00303   2.76413
    R3        2.03260  -0.00253   0.00000  -0.00677  -0.00677   2.02584
    R4        2.79713  -0.00309   0.00000  -0.00816  -0.00814   2.78899
    R5        2.03239  -0.00286   0.00000  -0.00763  -0.00763   2.02476
    R6        2.79058   0.01670   0.00000   0.03869   0.03843   2.82901
    R7        2.65638   0.04023   0.00000   0.09204   0.09219   2.74857
    R8        2.03486  -0.00382   0.00000  -0.01025  -0.01025   2.02461
    R9        2.79716  -0.00309   0.00000  -0.00818  -0.00816   2.78900
   R10        2.65638   0.04023   0.00000   0.09204   0.09219   2.74857
   R11        2.03484  -0.00381   0.00000  -0.01024  -0.01024   2.02461
   R12        2.51189  -0.00182   0.00000  -0.00337  -0.00339   2.50850
   R13        2.03239  -0.00286   0.00000  -0.00763  -0.00763   2.02476
   R14        2.03261  -0.00253   0.00000  -0.00677  -0.00677   2.02584
    A1        2.12108   0.00101   0.00000   0.00074   0.00063   2.12171
    A2        2.09996   0.00011   0.00000   0.00282   0.00283   2.10279
    A3        2.05976  -0.00119   0.00000  -0.00444  -0.00442   2.05534
    A4        2.10300   0.00128   0.00000   0.00411   0.00403   2.10703
    A5        2.11362  -0.00037   0.00000  -0.00033  -0.00033   2.11329
    A6        2.06647  -0.00090   0.00000  -0.00360  -0.00360   2.06287
    A7        2.05492  -0.00245   0.00000  -0.00697  -0.00703   2.04789
    A8        2.04100  -0.00458   0.00000  -0.00520  -0.00495   2.03606
    A9        2.04583   0.00078   0.00000  -0.00197  -0.00219   2.04364
   A10        2.08490   0.00070   0.00000  -0.00529  -0.00550   2.07940
   A11        1.98184   0.00170   0.00000   0.01779   0.01786   1.99970
   A12        2.05490  -0.00244   0.00000  -0.00696  -0.00703   2.04788
   A13        2.08492   0.00070   0.00000  -0.00531  -0.00551   2.07941
   A14        2.04099  -0.00458   0.00000  -0.00519  -0.00494   2.03605
   A15        2.04583   0.00078   0.00000  -0.00196  -0.00219   2.04363
   A16        1.98185   0.00170   0.00000   0.01779   0.01786   1.99971
   A17        2.10299   0.00128   0.00000   0.00411   0.00403   2.10703
   A18        2.06646  -0.00089   0.00000  -0.00359  -0.00359   2.06287
   A19        2.11363  -0.00038   0.00000  -0.00034  -0.00034   2.11329
   A20        2.12110   0.00101   0.00000   0.00073   0.00062   2.12172
   A21        2.05976  -0.00119   0.00000  -0.00444  -0.00442   2.05534
   A22        2.09994   0.00011   0.00000   0.00283   0.00285   2.10279
    D1       -0.10043  -0.00204   0.00000  -0.02574  -0.02569  -0.12612
    D2        3.02574  -0.00166   0.00000  -0.01182  -0.01175   3.01399
    D3        3.11678  -0.00081   0.00000  -0.01166  -0.01163   3.10515
    D4       -0.04024  -0.00043   0.00000   0.00227   0.00232  -0.03792
    D5        0.00000   0.00000   0.00000   0.00001   0.00001   0.00000
    D6       -3.06764   0.00115   0.00000   0.01346   0.01339  -3.05426
    D7        3.06765  -0.00115   0.00000  -0.01347  -0.01339   3.05426
    D8        0.00001   0.00000   0.00000  -0.00001  -0.00001   0.00000
    D9        0.09672   0.00178   0.00000   0.02438   0.02423   0.12095
   D10       -1.06426  -0.00246   0.00000   0.01339   0.01365  -1.05060
   D11        2.77648  -0.00017   0.00000  -0.00852  -0.00854   2.76794
   D12       -3.02986   0.00140   0.00000   0.01079   0.01065  -3.01921
   D13        2.09235  -0.00284   0.00000  -0.00019   0.00008   2.09243
   D14       -0.35010  -0.00055   0.00000  -0.02210  -0.02211  -0.37222
   D15       -0.00001   0.00000   0.00000   0.00001   0.00001   0.00000
   D16        2.66913  -0.00200   0.00000  -0.03277  -0.03258   2.63655
   D17       -2.66914   0.00200   0.00000   0.03277   0.03259  -2.63656
   D18        0.00000   0.00000   0.00000   0.00000   0.00000  -0.00001
   D19       -0.09670  -0.00178   0.00000  -0.02439  -0.02424  -0.12094
   D20        3.02987  -0.00140   0.00000  -0.01079  -0.01066   3.01921
   D21        1.06426   0.00246   0.00000  -0.01340  -0.01366   1.05060
   D22       -2.09235   0.00284   0.00000   0.00019  -0.00008  -2.09243
   D23       -2.77648   0.00017   0.00000   0.00852   0.00855  -2.76793
   D24        0.35009   0.00055   0.00000   0.02212   0.02213   0.37222
   D25        0.10043   0.00204   0.00000   0.02574   0.02569   0.12612
   D26       -3.11679   0.00081   0.00000   0.01167   0.01164  -3.10515
   D27       -3.02572   0.00166   0.00000   0.01180   0.01173  -3.01399
   D28        0.04024   0.00043   0.00000  -0.00227  -0.00231   0.03792
         Item               Value     Threshold  Converged?
 Maximum Force            0.040231     0.000450     NO 
 RMS     Force            0.007642     0.000300     NO 
 Maximum Displacement     0.104294     0.001800     NO 
 RMS     Displacement     0.017228     0.001200     NO 
 Predicted change in Energy=-4.529754D-03
 GradGradGradGradGradGradGradGradGradGradGradGradGradGradGradGradGradGrad

                          Input orientation:                          
 ---------------------------------------------------------------------
 Center     Atomic      Atomic             Coordinates (Angstroms)
 Number     Number       Type             X           Y           Z
 ---------------------------------------------------------------------
      1          6           0       -1.430299    0.731356    0.109062
      2          6           0       -0.332297    1.426233   -0.162305
      3          6           0        0.969304    0.748527   -0.319602
      4          6           0        0.969311   -0.748521   -0.319607
      5          6           0       -0.332291   -1.426233   -0.162310
      6          6           0       -1.430295   -0.731358    0.109059
      7          1           0       -2.367555    1.230710    0.255471
      8          1           0       -0.365291    2.491294   -0.274438
      9          1           0       -0.365279   -2.491293   -0.274447
     10          1           0       -2.367551   -1.230717    0.255465
     11          8           0        1.458145    0.000001    0.827680
     12          1           0        1.728011   -1.270241   -0.867356
     13          1           0        1.728006    1.270252   -0.867343
 ---------------------------------------------------------------------
                    Distance matrix (angstroms):
                    1          2          3          4          5
     1  C    0.000000
     2  C    1.327442   0.000000
     3  C    2.437651   1.475870   0.000000
     4  C    2.851652   2.539387   1.497048   0.000000
     5  C    2.436073   2.852466   2.539384   1.475874   0.000000
     6  C    1.462714   2.436071   2.851646   2.437655   1.327443
     7  H    1.072026   2.086874   3.420210   3.922085   3.372860
     8  H    2.092534   1.071456   2.195546   3.504227   3.919270
     9  H    3.415671   3.919270   3.504224   2.195547   1.071455
    10  H    2.179359   3.372858   3.922080   3.420215   2.086874
    11  O    3.065028   2.493971   1.454480   1.454479   2.493969
    12  H    3.864545   3.465969   2.225106   1.071376   2.183179
    13  H    3.349428   2.183176   1.071376   2.225102   3.465967
                    6          7          8          9         10
     6  C    0.000000
     7  H    2.179359   0.000000
     8  H    3.415669   2.424652   0.000000
     9  H    2.092536   4.259487   4.982587   0.000000
    10  H    1.072027   2.461427   4.259484   2.424655   0.000000
    11  O    3.065027   4.059316   3.278129   3.278125   4.059315
    12  H    3.349430   4.928404   4.345413   2.494869   4.246872
    13  H    3.864541   4.246869   2.494870   4.345410   4.928401
                   11         12         13
    11  O    0.000000
    12  H    2.135296   0.000000
    13  H    2.135291   2.540493   0.000000
 Stoichiometry    C6H6O
 Framework group  C1[X(C6H6O)]
 Deg. of freedom    33
 Full point group                 C1      NOp   1
 Largest Abelian subgroup         C1      NOp   1
 Largest concise Abelian subgroup C1      NOp   1
                         Standard orientation:                         
 ---------------------------------------------------------------------
 Center     Atomic      Atomic             Coordinates (Angstroms)
 Number     Number       Type             X           Y           Z
 ---------------------------------------------------------------------
      1          6           0        1.431789   -0.731352    0.117684
      2          6           0        0.336911   -1.426231   -0.166020
      3          6           0       -0.962839   -0.748528   -0.337948
      4          6           0       -0.962850    0.748520   -0.337950
      5          6           0        0.336899    1.426234   -0.166019
      6          6           0        1.431782    0.731362    0.117684
      7          1           0        2.367340   -1.230704    0.274627
      8          1           0        0.371168   -2.491292   -0.277777
      9          1           0        0.371144    2.491295   -0.277775
     10          1           0        2.367330    1.230723    0.274627
     11          8           0       -1.464558   -0.000005    0.803763
     12          1           0       -1.715341    1.270240   -0.894199
     13          1           0       -1.715330   -1.270253   -0.894192
 ---------------------------------------------------------------------
 Rotational constants (GHZ):      4.6060211      3.5615884      2.2970337
 Standard basis: 3-21G (6D, 7F)
 There are    75 symmetry adapted cartesian basis functions of A   symmetry.
 There are    75 symmetry adapted basis functions of A   symmetry.
    75 basis functions,   123 primitive gaussians,    75 cartesian basis functions
    25 alpha electrons       25 beta electrons
       nuclear repulsion energy       280.8768115640 Hartrees.
 NAtoms=   13 NActive=   13 NUniq=   13 SFac= 1.00D+00 NAtFMM=   60 NAOKFM=F Big=F
 Integral buffers will be    131072 words long.
 Raffenetti 1 integral format.
 Two-electron integral symmetry is turned on.
 One-electron integrals computed using PRISM.
 NBasis=    75 RedAO= T EigKep=  2.17D-03  NBF=    75
 NBsUse=    75 1.00D-06 EigRej= -1.00D+00 NBFU=    75
 Initial guess from the checkpoint file:  "/tmp/Gau-8548.chk"
 B after Tr=     0.000000    0.000000    0.000000
         Rot=    0.999997   -0.000001    0.002497    0.000000 Ang=  -0.29 deg.
 ExpMin= 1.83D-01 ExpMax= 3.22D+02 ExpMxC= 3.22D+02 IAcc=1 IRadAn=         1 AccDes= 0.00D+00
 Harris functional with IExCor=  205 and IRadAn=       1 diagonalized for initial guess.
 HarFok:  IExCor=  205 AccDes= 0.00D+00 IRadAn=         1 IDoV= 1 UseB2=F ITyADJ=14
 ICtDFT=  3500011 ScaDFX=  1.000000  1.000000  1.000000  1.000000
 FoFCou: FMM=F IPFlag=           0 FMFlag=      100000 FMFlg1=           0
         NFxFlg=           0 DoJE=T BraDBF=F KetDBF=T FulRan=T
         wScrn=  0.000000 ICntrl=     500 IOpCl=  0 I1Cent=   200000004 NGrid=           0
         NMat0=    1 NMatS0=      1 NMatT0=    0 NMatD0=    1 NMtDS0=    0 NMtDT0=    0
 Petite list used in FoFCou.
 Keep R1 ints in memory in canonical form, NReq=4928148.
 Requested convergence on RMS density matrix=1.00D-08 within 128 cycles.
 Requested convergence on MAX density matrix=1.00D-06.
 Requested convergence on             energy=1.00D-06.
 No special actions if energy rises.
 SCF Done:  E(RHF) =  -303.766114212     A.U. after   12 cycles
            NFock= 12  Conv=0.32D-08     -V/T= 2.0017
 Calling FoFJK, ICntrl=      2127 FMM=F ISym2X=0 I1Cent= 0 IOpClX= 0 NMat=1 NMatS=1 NMatT=0.
 ***** Axes restored to original set *****
 -------------------------------------------------------------------
 Center     Atomic                   Forces (Hartrees/Bohr)
 Number     Number              X              Y              Z
 -------------------------------------------------------------------
      1        6          -0.000552983   -0.000688062    0.000176551
      2        6           0.002483296   -0.001941043    0.001448300
      3        6          -0.007091165    0.010437460   -0.012050195
      4        6          -0.007095494   -0.010437848   -0.012049294
      5        6           0.002485471    0.001942093    0.001447511
      6        6          -0.000553674    0.000687184    0.000177098
      7        1          -0.000192007    0.000016197   -0.000085840
      8        1           0.000053242    0.000259041   -0.000161464
      9        1           0.000052673   -0.000259254   -0.000161411
     10        1          -0.000191506   -0.000016080   -0.000085873
     11        8           0.008075354   -0.000000119    0.017075855
     12        1           0.001263629    0.000712398    0.002134541
     13        1           0.001263164   -0.000711969    0.002134220
 -------------------------------------------------------------------
 Cartesian Forces:  Max     0.017075855 RMS     0.005076352

 GradGradGradGradGradGradGradGradGradGradGradGradGradGradGradGradGradGrad
 Berny optimization.
 Using GEDIIS/GDIIS optimizer.
 FormGI is forming the generalized inverse of G from B-inverse, IUseBI=4.
 Internal  Forces:  Max     0.010336669 RMS     0.002022978
 Search for a local minimum.
 Step number   2 out of a maximum of   74
 All quantities printed in internal units (Hartrees-Bohrs-Radians)
 Mixed Optimization -- RFO/linear search
 Update second derivatives using D2CorX and points    1    2
 DE= -5.25D-03 DEPred=-4.53D-03 R= 1.16D+00
 TightC=F SS=  1.41D+00  RLast= 1.65D-01 DXNew= 5.0454D-01 4.9555D-01
 Trust test= 1.16D+00 RLast= 1.65D-01 DXMaxT set to 4.96D-01
 ITU=  1  0
 Use linear search instead of GDIIS.
     Eigenvalues ---    0.01506   0.01510   0.01875   0.01989   0.02115
     Eigenvalues ---    0.02488   0.02644   0.03014   0.03441   0.13928
     Eigenvalues ---    0.14752   0.15925   0.15961   0.15998   0.16000
     Eigenvalues ---    0.18057   0.18274   0.21758   0.21943   0.29603
     Eigenvalues ---    0.30812   0.31650   0.33666   0.34835   0.36118
     Eigenvalues ---    0.36384   0.36463   0.36530   0.36536   0.36544
     Eigenvalues ---    0.36789   0.56704   0.58666
 RFO step:  Lambda=-6.33559600D-04 EMin= 1.50565389D-02
 Quartic linear search produced a step of  0.32010.
 Iteration  1 RMS(Cart)=  0.00889386 RMS(Int)=  0.00019254
 Iteration  2 RMS(Cart)=  0.00014796 RMS(Int)=  0.00011340
 Iteration  3 RMS(Cart)=  0.00000001 RMS(Int)=  0.00011340
 Variable       Old X    -DE/DX   Delta X   Delta X   Delta X     New X
                                 (Linear)    (Quad)   (Total)
    R1        2.50850   0.00057  -0.00109   0.00235   0.00123   2.50973
    R2        2.76413  -0.00080  -0.00097  -0.00117  -0.00220   2.76192
    R3        2.02584   0.00016  -0.00217   0.00201  -0.00015   2.02568
    R4        2.78899  -0.00215  -0.00261  -0.00701  -0.00959   2.77940
    R5        2.02476   0.00027  -0.00244   0.00259   0.00015   2.02491
    R6        2.82901   0.00381   0.01230   0.00294   0.01515   2.84417
    R7        2.74857   0.01034   0.02951   0.01168   0.04127   2.78984
    R8        2.02461  -0.00054  -0.00328   0.00019  -0.00310   2.02151
    R9        2.78900  -0.00215  -0.00261  -0.00702  -0.00960   2.77940
   R10        2.74857   0.01034   0.02951   0.01168   0.04127   2.78983
   R11        2.02461  -0.00054  -0.00328   0.00018  -0.00309   2.02151
   R12        2.50850   0.00057  -0.00108   0.00234   0.00123   2.50973
   R13        2.02476   0.00027  -0.00244   0.00259   0.00015   2.02491
   R14        2.02584   0.00016  -0.00217   0.00201  -0.00015   2.02568
    A1        2.12171  -0.00017   0.00020  -0.00072  -0.00056   2.12115
    A2        2.10279   0.00014   0.00091   0.00019   0.00110   2.10389
    A3        2.05534   0.00001  -0.00141   0.00056  -0.00084   2.05450
    A4        2.10703   0.00072   0.00129   0.00125   0.00256   2.10959
    A5        2.11329  -0.00027  -0.00011  -0.00019  -0.00033   2.11296
    A6        2.06287  -0.00044  -0.00115  -0.00106  -0.00224   2.06063
    A7        2.04789  -0.00056  -0.00225   0.00034  -0.00196   2.04592
    A8        2.03606  -0.00099  -0.00158  -0.00933  -0.01084   2.02521
    A9        2.04364   0.00130  -0.00070   0.01260   0.01150   2.05513
   A10        2.07940  -0.00032  -0.00176   0.00919   0.00707   2.08647
   A11        1.99970  -0.00132   0.00572  -0.02823  -0.02257   1.97713
   A12        2.04788  -0.00055  -0.00225   0.00035  -0.00196   2.04592
   A13        2.07941  -0.00032  -0.00176   0.00918   0.00706   2.08647
   A14        2.03605  -0.00099  -0.00158  -0.00932  -0.01084   2.02521
   A15        2.04363   0.00130  -0.00070   0.01259   0.01150   2.05513
   A16        1.99971  -0.00132   0.00572  -0.02824  -0.02258   1.97713
   A17        2.10703   0.00072   0.00129   0.00125   0.00256   2.10959
   A18        2.06287  -0.00044  -0.00115  -0.00106  -0.00223   2.06063
   A19        2.11329  -0.00028  -0.00011  -0.00020  -0.00033   2.11296
   A20        2.12172  -0.00017   0.00020  -0.00072  -0.00057   2.12115
   A21        2.05534   0.00001  -0.00141   0.00056  -0.00084   2.05450
   A22        2.10279   0.00014   0.00091   0.00019   0.00110   2.10389
    D1       -0.12612  -0.00006  -0.00822   0.00837   0.00021  -0.12591
    D2        3.01399  -0.00017  -0.00376   0.00337  -0.00032   3.01367
    D3        3.10515   0.00009  -0.00372   0.00796   0.00426   3.10942
    D4       -0.03792  -0.00002   0.00074   0.00295   0.00373  -0.03419
    D5        0.00000   0.00000   0.00000  -0.00001   0.00000   0.00000
    D6       -3.05426   0.00014   0.00429  -0.00039   0.00384  -3.05042
    D7        3.05426  -0.00014  -0.00429   0.00038  -0.00385   3.05041
    D8        0.00000   0.00000   0.00000   0.00000  -0.00001  -0.00001
    D9        0.12095   0.00004   0.00776  -0.00795  -0.00029   0.12066
   D10       -1.05060  -0.00113   0.00437  -0.00706  -0.00252  -1.05312
   D11        2.76794   0.00082  -0.00273   0.03979   0.03708   2.80502
   D12       -3.01921   0.00014   0.00341  -0.00308   0.00023  -3.01897
   D13        2.09243  -0.00103   0.00003  -0.00220  -0.00200   2.09043
   D14       -0.37222   0.00092  -0.00708   0.04465   0.03760  -0.33462
   D15        0.00000   0.00000   0.00000   0.00000   0.00000   0.00000
   D16        2.63655   0.00127  -0.01043   0.04967   0.03929   2.67584
   D17       -2.63656  -0.00127   0.01043  -0.04966  -0.03929  -2.67584
   D18       -0.00001   0.00000   0.00000   0.00001   0.00000   0.00000
   D19       -0.12094  -0.00004  -0.00776   0.00794   0.00028  -0.12066
   D20        3.01921  -0.00014  -0.00341   0.00309  -0.00023   3.01898
   D21        1.05060   0.00113  -0.00437   0.00706   0.00252   1.05312
   D22       -2.09243   0.00103  -0.00002   0.00220   0.00201  -2.09042
   D23       -2.76793  -0.00082   0.00274  -0.03979  -0.03709  -2.80502
   D24        0.37222  -0.00092   0.00708  -0.04465  -0.03760   0.33462
   D25        0.12612   0.00006   0.00822  -0.00836  -0.00021   0.12591
   D26       -3.10515  -0.00009   0.00373  -0.00795  -0.00425  -3.10941
   D27       -3.01399   0.00017   0.00376  -0.00336   0.00032  -3.01367
   D28        0.03792   0.00002  -0.00074  -0.00296  -0.00373   0.03420
         Item               Value     Threshold  Converged?
 Maximum Force            0.010337     0.000450     NO 
 RMS     Force            0.002023     0.000300     NO 
 Maximum Displacement     0.028096     0.001800     NO 
 RMS     Displacement     0.008855     0.001200     NO 
 Predicted change in Energy=-6.481550D-04
 GradGradGradGradGradGradGradGradGradGradGradGradGradGradGradGradGradGrad

                          Input orientation:                          
 ---------------------------------------------------------------------
 Center     Atomic      Atomic             Coordinates (Angstroms)
 Number     Number       Type             X           Y           Z
 ---------------------------------------------------------------------
      1          6           0       -1.430192    0.730771    0.112113
      2          6           0       -0.333274    1.425349   -0.167456
      3          6           0        0.963903    0.752537   -0.334469
      4          6           0        0.963906   -0.752530   -0.334474
      5          6           0       -0.333268   -1.425347   -0.167465
      6          6           0       -1.430189   -0.730776    0.112110
      7          1           0       -2.367286    1.229290    0.261782
      8          1           0       -0.366898    2.490454   -0.279728
      9          1           0       -0.366889   -2.490452   -0.279738
     10          1           0       -2.367280   -1.229299    0.261782
     11          8           0        1.458924    0.000000    0.835213
     12          1           0        1.735234   -1.280038   -0.855175
     13          1           0        1.735230    1.280051   -0.855165
 ---------------------------------------------------------------------
                    Distance matrix (angstroms):
                    1          2          3          4          5
     1  C    0.000000
     2  C    1.328091   0.000000
     3  C    2.435487   1.470794   0.000000
     4  C    2.851548   2.540418   1.505068   0.000000
     5  C    2.435210   2.850695   2.540418   1.470793   0.000000
     6  C    1.461547   2.435212   2.851549   2.435488   1.328091
     7  H    1.071946   2.088035   3.417547   3.921730   3.371732
     8  H    2.092992   1.071534   2.189607   3.505849   3.917553
     9  H    3.414738   3.917554   3.505850   2.189608   1.071534
    10  H    2.177708   3.371733   3.921731   3.417547   2.088036
    11  O    3.066576   2.499787   1.476318   1.476317   2.499785
    12  H    3.872843   3.474305   2.235497   1.069739   2.184664
    13  H    3.355180   2.184665   1.069738   2.235497   3.474304
                    6          7          8          9         10
     6  C    0.000000
     7  H    2.177708   0.000000
     8  H    3.414739   2.425967   0.000000
     9  H    2.092990   4.258087   4.980905   0.000000
    10  H    1.071945   2.458590   4.258089   2.425966   0.000000
    11  O    3.066576   4.059539   3.283151   3.283148   4.059537
    12  H    3.355180   4.937103   4.355078   2.493020   4.252151
    13  H    3.872845   4.252151   2.493020   4.355079   4.937104
                   11         12         13
    11  O    0.000000
    12  H    2.138283   0.000000
    13  H    2.138283   2.560089   0.000000
 Stoichiometry    C6H6O
 Framework group  C1[X(C6H6O)]
 Deg. of freedom    33
 Full point group                 C1      NOp   1
 Largest Abelian subgroup         C1      NOp   1
 Largest concise Abelian subgroup C1      NOp   1
                         Standard orientation:                         
 ---------------------------------------------------------------------
 Center     Atomic      Atomic             Coordinates (Angstroms)
 Number     Number       Type             X           Y           Z
 ---------------------------------------------------------------------
      1          6           0        1.430629   -0.730773    0.121238
      2          6           0        0.336553   -1.425348   -0.169263
      3          6           0       -0.958891   -0.752535   -0.349207
      4          6           0       -0.958892    0.752533   -0.349208
      5          6           0        0.336552    1.425347   -0.169265
      6          6           0        1.430628    0.730774    0.121239
      7          1           0        2.366182   -1.229293    0.280248
      8          1           0        0.371295   -2.490453   -0.281196
      9          1           0        0.371293    2.490452   -0.281194
     10          1           0        2.366180    1.229296    0.280253
     11          8           0       -1.465556    0.000001    0.815480
     12          1           0       -1.724986    1.280043   -0.877578
     13          1           0       -1.724986   -1.280046   -0.877574
 ---------------------------------------------------------------------
 Rotational constants (GHZ):      4.5815381      3.5534719      2.2977196
 Standard basis: 3-21G (6D, 7F)
 There are    75 symmetry adapted cartesian basis functions of A   symmetry.
 There are    75 symmetry adapted basis functions of A   symmetry.
    75 basis functions,   123 primitive gaussians,    75 cartesian basis functions
    25 alpha electrons       25 beta electrons
       nuclear repulsion energy       280.3210472683 Hartrees.
 NAtoms=   13 NActive=   13 NUniq=   13 SFac= 1.00D+00 NAtFMM=   60 NAOKFM=F Big=F
 Integral buffers will be    131072 words long.
 Raffenetti 1 integral format.
 Two-electron integral symmetry is turned on.
 One-electron integrals computed using PRISM.
 NBasis=    75 RedAO= T EigKep=  2.14D-03  NBF=    75
 NBsUse=    75 1.00D-06 EigRej= -1.00D+00 NBFU=    75
 Initial guess from the checkpoint file:  "/tmp/Gau-8548.chk"
 B after Tr=     0.000000    0.000000    0.000000
         Rot=    1.000000    0.000000    0.000091    0.000002 Ang=   0.01 deg.
 ExpMin= 1.83D-01 ExpMax= 3.22D+02 ExpMxC= 3.22D+02 IAcc=1 IRadAn=         1 AccDes= 0.00D+00
 Harris functional with IExCor=  205 and IRadAn=       1 diagonalized for initial guess.
 HarFok:  IExCor=  205 AccDes= 0.00D+00 IRadAn=         1 IDoV= 1 UseB2=F ITyADJ=14
 ICtDFT=  3500011 ScaDFX=  1.000000  1.000000  1.000000  1.000000
 FoFCou: FMM=F IPFlag=           0 FMFlag=      100000 FMFlg1=           0
         NFxFlg=           0 DoJE=T BraDBF=F KetDBF=T FulRan=T
         wScrn=  0.000000 ICntrl=     500 IOpCl=  0 I1Cent=   200000004 NGrid=           0
         NMat0=    1 NMatS0=      1 NMatT0=    0 NMatD0=    1 NMtDS0=    0 NMtDT0=    0
 Petite list used in FoFCou.
 Keep R1 ints in memory in canonical form, NReq=4928148.
 Requested convergence on RMS density matrix=1.00D-08 within 128 cycles.
 Requested convergence on MAX density matrix=1.00D-06.
 Requested convergence on             energy=1.00D-06.
 No special actions if energy rises.
 SCF Done:  E(RHF) =  -303.766803609     A.U. after   12 cycles
            NFock= 12  Conv=0.37D-08     -V/T= 2.0019
 Calling FoFJK, ICntrl=      2127 FMM=F ISym2X=0 I1Cent= 0 IOpClX= 0 NMat=1 NMatS=1 NMatT=0.
 ***** Axes restored to original set *****
 -------------------------------------------------------------------
 Center     Atomic                   Forces (Hartrees/Bohr)
 Number     Number              X              Y              Z
 -------------------------------------------------------------------
      1        6          -0.000308333   -0.000785374   -0.000301165
      2        6           0.000810261   -0.000662017    0.000682714
      3        6          -0.001060487   -0.000176447   -0.001070163
      4        6          -0.001059933    0.000176256   -0.001071192
      5        6           0.000809122    0.000661467    0.000683363
      6        6          -0.000307118    0.000785840   -0.000301060
      7        1          -0.000035169    0.000254574    0.000174499
      8        1          -0.000195102    0.000232739   -0.000163898
      9        1          -0.000194849   -0.000232762   -0.000164114
     10        1          -0.000035469   -0.000254688    0.000174263
     11        8           0.000240069    0.000000173    0.001716128
     12        1           0.000668417    0.000535423   -0.000179500
     13        1           0.000668590   -0.000535184   -0.000179875
 -------------------------------------------------------------------
 Cartesian Forces:  Max     0.001716128 RMS     0.000605393

 GradGradGradGradGradGradGradGradGradGradGradGradGradGradGradGradGradGrad
 Berny optimization.
 Using GEDIIS/GDIIS optimizer.
 FormGI is forming the generalized inverse of G from B-inverse, IUseBI=4.
 Internal  Forces:  Max     0.001369963 RMS     0.000376703
 Search for a local minimum.
 Step number   3 out of a maximum of   74
 All quantities printed in internal units (Hartrees-Bohrs-Radians)
 Mixed Optimization -- En-DIIS/RFO-DIIS
 Update second derivatives using D2CorX and points    1    2    3
 DE= -6.89D-04 DEPred=-6.48D-04 R= 1.06D+00
 TightC=F SS=  1.41D+00  RLast= 1.20D-01 DXNew= 8.3341D-01 3.5851D-01
 Trust test= 1.06D+00 RLast= 1.20D-01 DXMaxT set to 4.96D-01
 ITU=  1  1  0
 Use linear search instead of GDIIS.
     Eigenvalues ---    0.01490   0.01511   0.01874   0.01991   0.02117
     Eigenvalues ---    0.02483   0.02633   0.03001   0.03810   0.13947
     Eigenvalues ---    0.14159   0.15918   0.15964   0.16000   0.16013
     Eigenvalues ---    0.18209   0.18370   0.21737   0.21942   0.25014
     Eigenvalues ---    0.31607   0.31706   0.33639   0.34590   0.36307
     Eigenvalues ---    0.36384   0.36433   0.36530   0.36536   0.36544
     Eigenvalues ---    0.37056   0.56702   0.58677
 RFO step:  Lambda=-4.26520914D-05 EMin= 1.49010347D-02
 Quartic linear search produced a step of  0.07234.
 Iteration  1 RMS(Cart)=  0.00282874 RMS(Int)=  0.00000991
 Iteration  2 RMS(Cart)=  0.00000684 RMS(Int)=  0.00000747
 Iteration  3 RMS(Cart)=  0.00000000 RMS(Int)=  0.00000747
 Variable       Old X    -DE/DX   Delta X   Delta X   Delta X     New X
                                 (Linear)    (Quad)   (Total)
    R1        2.50973   0.00025   0.00009   0.00042   0.00051   2.51024
    R2        2.76192  -0.00054  -0.00016  -0.00141  -0.00158   2.76035
    R3        2.02568   0.00017  -0.00001   0.00044   0.00043   2.02611
    R4        2.77940  -0.00039  -0.00069  -0.00107  -0.00177   2.77763
    R5        2.02491   0.00025   0.00001   0.00066   0.00067   2.02557
    R6        2.84417  -0.00137   0.00110  -0.00480  -0.00371   2.84046
    R7        2.78984   0.00084   0.00299   0.00195   0.00494   2.79478
    R8        2.02151   0.00031  -0.00022   0.00088   0.00065   2.02217
    R9        2.77940  -0.00039  -0.00069  -0.00107  -0.00177   2.77763
   R10        2.78983   0.00084   0.00299   0.00195   0.00494   2.79478
   R11        2.02151   0.00031  -0.00022   0.00088   0.00065   2.02217
   R12        2.50973   0.00025   0.00009   0.00042   0.00051   2.51024
   R13        2.02491   0.00025   0.00001   0.00066   0.00067   2.02557
   R14        2.02568   0.00017  -0.00001   0.00044   0.00043   2.02611
    A1        2.12115  -0.00022  -0.00004  -0.00067  -0.00071   2.12044
    A2        2.10389  -0.00007   0.00008  -0.00073  -0.00065   2.10324
    A3        2.05450   0.00030  -0.00006   0.00172   0.00166   2.05616
    A4        2.10959   0.00011   0.00019   0.00046   0.00065   2.11024
    A5        2.11296  -0.00022  -0.00002  -0.00132  -0.00134   2.11162
    A6        2.06063   0.00010  -0.00016   0.00085   0.00068   2.06131
    A7        2.04592   0.00010  -0.00014   0.00040   0.00025   2.04618
    A8        2.02521  -0.00079  -0.00078  -0.00308  -0.00386   2.02136
    A9        2.05513   0.00075   0.00083   0.00481   0.00562   2.06076
   A10        2.08647  -0.00084   0.00051  -0.00587  -0.00538   2.08109
   A11        1.97713  -0.00001  -0.00163   0.00004  -0.00159   1.97554
   A12        2.04592   0.00010  -0.00014   0.00040   0.00025   2.04618
   A13        2.08647  -0.00084   0.00051  -0.00587  -0.00538   2.08109
   A14        2.02521  -0.00079  -0.00078  -0.00308  -0.00386   2.02136
   A15        2.05513   0.00075   0.00083   0.00481   0.00562   2.06076
   A16        1.97713  -0.00001  -0.00163   0.00004  -0.00160   1.97554
   A17        2.10959   0.00011   0.00019   0.00046   0.00065   2.11024
   A18        2.06063   0.00010  -0.00016   0.00085   0.00068   2.06131
   A19        2.11296  -0.00022  -0.00002  -0.00131  -0.00134   2.11161
   A20        2.12115  -0.00022  -0.00004  -0.00066  -0.00071   2.12044
   A21        2.05450   0.00030  -0.00006   0.00172   0.00166   2.05616
   A22        2.10389  -0.00007   0.00008  -0.00073  -0.00065   2.10324
    D1       -0.12591  -0.00005   0.00002   0.00186   0.00188  -0.12403
    D2        3.01367  -0.00014  -0.00002  -0.00249  -0.00250   3.01116
    D3        3.10942  -0.00010   0.00031  -0.00240  -0.00209   3.10732
    D4       -0.03419  -0.00018   0.00027  -0.00675  -0.00648  -0.04067
    D5        0.00000   0.00000   0.00000   0.00000   0.00000   0.00000
    D6       -3.05042  -0.00002   0.00028  -0.00402  -0.00375  -3.05417
    D7        3.05041   0.00002  -0.00028   0.00403   0.00376   3.05417
    D8       -0.00001   0.00000   0.00000   0.00001   0.00001   0.00000
    D9        0.12066   0.00007  -0.00002  -0.00171  -0.00173   0.11893
   D10       -1.05312  -0.00022  -0.00018  -0.00240  -0.00257  -1.05569
   D11        2.80502  -0.00012   0.00268  -0.00476  -0.00208   2.80294
   D12       -3.01897   0.00016   0.00002   0.00252   0.00253  -3.01645
   D13        2.09043  -0.00014  -0.00014   0.00183   0.00169   2.09212
   D14       -0.33462  -0.00004   0.00272  -0.00054   0.00218  -0.33243
   D15        0.00000   0.00000   0.00000   0.00000   0.00000   0.00000
   D16        2.67584   0.00024   0.00284  -0.00018   0.00266   2.67850
   D17       -2.67584  -0.00024  -0.00284   0.00018  -0.00266  -2.67850
   D18        0.00000   0.00000   0.00000   0.00000   0.00000   0.00000
   D19       -0.12066  -0.00007   0.00002   0.00171   0.00174  -0.11893
   D20        3.01898  -0.00016  -0.00002  -0.00252  -0.00253   3.01645
   D21        1.05312   0.00022   0.00018   0.00240   0.00257   1.05569
   D22       -2.09042   0.00014   0.00015  -0.00183  -0.00170  -2.09212
   D23       -2.80502   0.00012  -0.00268   0.00476   0.00208  -2.80294
   D24        0.33462   0.00004  -0.00272   0.00053  -0.00219   0.33243
   D25        0.12591   0.00005  -0.00001  -0.00186  -0.00188   0.12403
   D26       -3.10941   0.00010  -0.00031   0.00240   0.00209  -3.10732
   D27       -3.01367   0.00014   0.00002   0.00249   0.00251  -3.01116
   D28        0.03420   0.00018  -0.00027   0.00675   0.00647   0.04067
         Item               Value     Threshold  Converged?
 Maximum Force            0.001370     0.000450     NO 
 RMS     Force            0.000377     0.000300     NO 
 Maximum Displacement     0.011017     0.001800     NO 
 RMS     Displacement     0.002830     0.001200     NO 
 Predicted change in Energy=-2.429682D-05
 GradGradGradGradGradGradGradGradGradGradGradGradGradGradGradGradGradGrad

                          Input orientation:                          
 ---------------------------------------------------------------------
 Center     Atomic      Atomic             Coordinates (Angstroms)
 Number     Number       Type             X           Y           Z
 ---------------------------------------------------------------------
      1          6           0       -1.430774    0.730355    0.111589
      2          6           0       -0.332900    1.424271   -0.167153
      3          6           0        0.963127    0.751556   -0.335241
      4          6           0        0.963130   -0.751549   -0.335245
      5          6           0       -0.332894   -1.424270   -0.167160
      6          6           0       -1.430771   -0.730359    0.111587
      7          1           0       -2.366820    1.230552    0.263816
      8          1           0       -0.367529    2.489461   -0.281665
      9          1           0       -0.367519   -2.489460   -0.281676
     10          1           0       -2.366815   -1.230561    0.263811
     11          8           0        1.455777    0.000001    0.839366
     12          1           0        1.737955   -1.274208   -0.856352
     13          1           0        1.737951    1.274221   -0.856346
 ---------------------------------------------------------------------
                    Distance matrix (angstroms):
                    1          2          3          4          5
     1  C    0.000000
     2  C    1.328362   0.000000
     3  C    2.435337   1.469859   0.000000
     4  C    2.850697   2.538137   1.503104   0.000000
     5  C    2.434224   2.848541   2.538137   1.469859   0.000000
     6  C    1.460714   2.434224   2.850697   2.435337   1.328362
     7  H    1.072172   2.088083   3.417141   3.921245   3.372043
     8  H    2.092748   1.071887   2.189482   3.503950   3.915559
     9  H    3.413557   3.915559   3.503951   2.189482   1.071887
    10  H    2.178195   3.372043   3.921245   3.417141   2.088084
    11  O    3.065167   2.498197   1.478932   1.478932   2.498196
    12  H    3.872471   3.470624   2.230613   1.070085   2.187675
    13  H    3.357604   2.187676   1.070084   2.230613   3.470624
                    6          7          8          9         10
     6  C    0.000000
     7  H    2.178195   0.000000
     8  H    3.413557   2.424782   0.000000
     9  H    2.092748   4.258316   4.978921   0.000000
    10  H    1.072172   2.461113   4.258316   2.424782   0.000000
    11  O    3.065167   4.056817   3.283073   3.283072   4.056816
    12  H    3.357604   4.937386   4.350694   2.498022   4.255092
    13  H    3.872471   4.255093   2.498022   4.350694   4.937386
                   11         12         13
    11  O    0.000000
    12  H    2.139789   0.000000
    13  H    2.139789   2.548429   0.000000
 Stoichiometry    C6H6O
 Framework group  C1[X(C6H6O)]
 Deg. of freedom    33
 Full point group                 C1      NOp   1
 Largest Abelian subgroup         C1      NOp   1
 Largest concise Abelian subgroup C1      NOp   1
                         Standard orientation:                         
 ---------------------------------------------------------------------
 Center     Atomic      Atomic             Coordinates (Angstroms)
 Number     Number       Type             X           Y           Z
 ---------------------------------------------------------------------
      1          6           0        1.430557   -0.730356    0.120626
      2          6           0        0.335578   -1.424271   -0.169283
      3          6           0       -0.958669   -0.751553   -0.350559
      4          6           0       -0.958670    0.751552   -0.350559
      5          6           0        0.335576    1.424270   -0.169284
      6          6           0        1.430557    0.730357    0.120626
      7          1           0        2.365004   -1.230555    0.282375
      8          1           0        0.371370   -2.489461   -0.283439
      9          1           0        0.371367    2.489461   -0.283440
     10          1           0        2.365003    1.230557    0.282375
     11          8           0       -1.463253    0.000000    0.818973
     12          1           0       -1.728148    1.274213   -0.879528
     13          1           0       -1.728147   -1.274216   -0.879527
 ---------------------------------------------------------------------
 Rotational constants (GHZ):      4.5830722      3.5536006      2.3006808
 Standard basis: 3-21G (6D, 7F)
 There are    75 symmetry adapted cartesian basis functions of A   symmetry.
 There are    75 symmetry adapted basis functions of A   symmetry.
    75 basis functions,   123 primitive gaussians,    75 cartesian basis functions
    25 alpha electrons       25 beta electrons
       nuclear repulsion energy       280.3443637220 Hartrees.
 NAtoms=   13 NActive=   13 NUniq=   13 SFac= 1.00D+00 NAtFMM=   60 NAOKFM=F Big=F
 Integral buffers will be    131072 words long.
 Raffenetti 1 integral format.
 Two-electron integral symmetry is turned on.
 One-electron integrals computed using PRISM.
 NBasis=    75 RedAO= T EigKep=  2.13D-03  NBF=    75
 NBsUse=    75 1.00D-06 EigRej= -1.00D+00 NBFU=    75
 Initial guess from the checkpoint file:  "/tmp/Gau-8548.chk"
 B after Tr=     0.000000    0.000000    0.000000
         Rot=    1.000000    0.000000   -0.000258    0.000000 Ang=  -0.03 deg.
 Keep R1 ints in memory in canonical form, NReq=4928148.
 Requested convergence on RMS density matrix=1.00D-08 within 128 cycles.
 Requested convergence on MAX density matrix=1.00D-06.
 Requested convergence on             energy=1.00D-06.
 No special actions if energy rises.
 SCF Done:  E(RHF) =  -303.766828317     A.U. after   10 cycles
            NFock= 10  Conv=0.58D-08     -V/T= 2.0019
 Calling FoFJK, ICntrl=      2127 FMM=F ISym2X=0 I1Cent= 0 IOpClX= 0 NMat=1 NMatS=1 NMatT=0.
 ***** Axes restored to original set *****
 -------------------------------------------------------------------
 Center     Atomic                   Forces (Hartrees/Bohr)
 Number     Number              X              Y              Z
 -------------------------------------------------------------------
      1        6          -0.000037309   -0.000177036    0.000051107
      2        6           0.000110014    0.000204641   -0.000139323
      3        6          -0.000286040   -0.000454284    0.000016771
      4        6          -0.000285744    0.000454189    0.000016524
      5        6           0.000109504   -0.000204721   -0.000139257
      6        6          -0.000037070    0.000177050    0.000050915
      7        1           0.000062529    0.000072392   -0.000025670
      8        1          -0.000063485    0.000014498    0.000084006
      9        1          -0.000063424   -0.000014450    0.000084013
     10        1           0.000062472   -0.000072443   -0.000025647
     11        8           0.000177104    0.000000171   -0.000226886
     12        1           0.000125719    0.000047587    0.000126732
     13        1           0.000125730   -0.000047592    0.000126715
 -------------------------------------------------------------------
 Cartesian Forces:  Max     0.000454284 RMS     0.000159111

 GradGradGradGradGradGradGradGradGradGradGradGradGradGradGradGradGradGrad
 Berny optimization.
 Using GEDIIS/GDIIS optimizer.
 FormGI is forming the generalized inverse of G from B-inverse, IUseBI=4.
 Internal  Forces:  Max     0.000234677 RMS     0.000075539
 Search for a local minimum.
 Step number   4 out of a maximum of   74
 All quantities printed in internal units (Hartrees-Bohrs-Radians)
 Mixed Optimization -- En-DIIS/RFO-DIIS
 Swapping is turned off.
 Update second derivatives using D2CorX and points    1    2    3    4
 DE= -2.47D-05 DEPred=-2.43D-05 R= 1.02D+00
 TightC=F SS=  1.41D+00  RLast= 2.13D-02 DXNew= 8.3341D-01 6.3875D-02
 Trust test= 1.02D+00 RLast= 2.13D-02 DXMaxT set to 4.96D-01
 ITU=  1  1  1  0
     Eigenvalues ---    0.01486   0.01511   0.01928   0.01992   0.02114
     Eigenvalues ---    0.02471   0.02637   0.03000   0.03917   0.12758
     Eigenvalues ---    0.14167   0.15925   0.15936   0.15990   0.16000
     Eigenvalues ---    0.18250   0.18863   0.21857   0.21943   0.26950
     Eigenvalues ---    0.31040   0.31582   0.33627   0.34652   0.36146
     Eigenvalues ---    0.36384   0.36452   0.36530   0.36544   0.36546
     Eigenvalues ---    0.36848   0.56696   0.58621
 En-DIIS/RFO-DIIS IScMMF=        0 using points:     4    3
 RFO step:  Lambda=-9.18012586D-07.
 DidBck=F Rises=F RFO-DIIS coefs:    1.01209   -0.01209
 Iteration  1 RMS(Cart)=  0.00066644 RMS(Int)=  0.00000066
 Iteration  2 RMS(Cart)=  0.00000059 RMS(Int)=  0.00000030
 Variable       Old X    -DE/DX   Delta X   Delta X   Delta X     New X
                                 (Linear)    (Quad)   (Total)
    R1        2.51024   0.00003   0.00001   0.00007   0.00008   2.51032
    R2        2.76035  -0.00002  -0.00002  -0.00004  -0.00006   2.76029
    R3        2.02611  -0.00002   0.00001  -0.00007  -0.00007   2.02604
    R4        2.77763  -0.00001  -0.00002  -0.00008  -0.00011   2.77752
    R5        2.02557   0.00001   0.00001   0.00002   0.00003   2.02560
    R6        2.84046  -0.00023  -0.00004  -0.00100  -0.00104   2.83941
    R7        2.79478  -0.00013   0.00006   0.00001   0.00007   2.79484
    R8        2.02217   0.00001   0.00001   0.00003   0.00004   2.02220
    R9        2.77763  -0.00001  -0.00002  -0.00008  -0.00011   2.77752
   R10        2.79478  -0.00013   0.00006   0.00001   0.00007   2.79484
   R11        2.02217   0.00001   0.00001   0.00003   0.00004   2.02220
   R12        2.51024   0.00003   0.00001   0.00007   0.00008   2.51032
   R13        2.02557   0.00001   0.00001   0.00002   0.00003   2.02560
   R14        2.02611  -0.00002   0.00001  -0.00007  -0.00007   2.02604
    A1        2.12044   0.00003  -0.00001   0.00018   0.00017   2.12061
    A2        2.10324  -0.00011  -0.00001  -0.00072  -0.00073   2.10251
    A3        2.05616   0.00008   0.00002   0.00059   0.00061   2.05676
    A4        2.11024  -0.00010   0.00001  -0.00057  -0.00056   2.10968
    A5        2.11162  -0.00003  -0.00002  -0.00025  -0.00027   2.11135
    A6        2.06131   0.00013   0.00001   0.00082   0.00083   2.06215
    A7        2.04618   0.00007   0.00000   0.00038   0.00038   2.04655
    A8        2.02136   0.00012  -0.00005   0.00020   0.00015   2.02151
    A9        2.06076   0.00002   0.00007   0.00046   0.00053   2.06129
   A10        2.08109  -0.00007  -0.00007  -0.00012  -0.00018   2.08090
   A11        1.97554  -0.00019  -0.00002  -0.00166  -0.00168   1.97386
   A12        2.04618   0.00007   0.00000   0.00038   0.00038   2.04655
   A13        2.08109  -0.00007  -0.00007  -0.00012  -0.00018   2.08090
   A14        2.02136   0.00012  -0.00005   0.00020   0.00015   2.02151
   A15        2.06076   0.00002   0.00007   0.00046   0.00053   2.06129
   A16        1.97554  -0.00019  -0.00002  -0.00166  -0.00168   1.97386
   A17        2.11024  -0.00010   0.00001  -0.00057  -0.00056   2.10968
   A18        2.06131   0.00013   0.00001   0.00082   0.00083   2.06215
   A19        2.11161  -0.00003  -0.00002  -0.00025  -0.00027   2.11135
   A20        2.12044   0.00003  -0.00001   0.00018   0.00017   2.12061
   A21        2.05616   0.00008   0.00002   0.00059   0.00061   2.05676
   A22        2.10324  -0.00011  -0.00001  -0.00072  -0.00073   2.10251
    D1       -0.12403  -0.00001   0.00002  -0.00012  -0.00010  -0.12413
    D2        3.01116   0.00002  -0.00003   0.00160   0.00157   3.01273
    D3        3.10732  -0.00001  -0.00003  -0.00069  -0.00072   3.10661
    D4       -0.04067   0.00002  -0.00008   0.00103   0.00095  -0.03972
    D5        0.00000   0.00000   0.00000   0.00000   0.00000   0.00000
    D6       -3.05417   0.00001  -0.00005  -0.00049  -0.00053  -3.05470
    D7        3.05417  -0.00001   0.00005   0.00049   0.00054   3.05470
    D8        0.00000   0.00000   0.00000   0.00000   0.00000   0.00000
    D9        0.11893   0.00002  -0.00002   0.00013   0.00011   0.11903
   D10       -1.05569  -0.00007  -0.00003  -0.00030  -0.00033  -1.05602
   D11        2.80294   0.00006  -0.00003   0.00172   0.00170   2.80464
   D12       -3.01645  -0.00001   0.00003  -0.00154  -0.00151  -3.01796
   D13        2.09212  -0.00011   0.00002  -0.00197  -0.00195   2.09017
   D14       -0.33243   0.00003   0.00003   0.00005   0.00008  -0.33236
   D15        0.00000   0.00000   0.00000   0.00000   0.00000   0.00000
   D16        2.67850   0.00007   0.00003   0.00177   0.00180   2.68031
   D17       -2.67850  -0.00007  -0.00003  -0.00177  -0.00180  -2.68031
   D18        0.00000   0.00000   0.00000   0.00000   0.00000   0.00000
   D19       -0.11893  -0.00002   0.00002  -0.00013  -0.00011  -0.11903
   D20        3.01645   0.00001  -0.00003   0.00154   0.00151   3.01796
   D21        1.05569   0.00007   0.00003   0.00030   0.00033   1.05602
   D22       -2.09212   0.00011  -0.00002   0.00197   0.00195  -2.09017
   D23       -2.80294  -0.00006   0.00003  -0.00172  -0.00170  -2.80464
   D24        0.33243  -0.00003  -0.00003  -0.00005  -0.00008   0.33236
   D25        0.12403   0.00001  -0.00002   0.00012   0.00010   0.12413
   D26       -3.10732   0.00001   0.00003   0.00069   0.00072  -3.10661
   D27       -3.01116  -0.00002   0.00003  -0.00160  -0.00157  -3.01273
   D28        0.04067  -0.00002   0.00008  -0.00103  -0.00095   0.03972
         Item               Value     Threshold  Converged?
 Maximum Force            0.000235     0.000450     YES
 RMS     Force            0.000076     0.000300     YES
 Maximum Displacement     0.001736     0.001800     YES
 RMS     Displacement     0.000666     0.001200     YES
 Predicted change in Energy=-1.351748D-06
 Optimization completed.
    -- Stationary point found.
                           ----------------------------
                           !   Optimized Parameters   !
                           ! (Angstroms and Degrees)  !
 --------------------------                            --------------------------
 ! Name  Definition              Value          Derivative Info.                !
 --------------------------------------------------------------------------------
 ! R1    R(1,2)                  1.3284         -DE/DX =    0.0                 !
 ! R2    R(1,6)                  1.4607         -DE/DX =    0.0                 !
 ! R3    R(1,7)                  1.0722         -DE/DX =    0.0                 !
 ! R4    R(2,3)                  1.4699         -DE/DX =    0.0                 !
 ! R5    R(2,8)                  1.0719         -DE/DX =    0.0                 !
 ! R6    R(3,4)                  1.5031         -DE/DX =   -0.0002              !
 ! R7    R(3,11)                 1.4789         -DE/DX =   -0.0001              !
 ! R8    R(3,13)                 1.0701         -DE/DX =    0.0                 !
 ! R9    R(4,5)                  1.4699         -DE/DX =    0.0                 !
 ! R10   R(4,11)                 1.4789         -DE/DX =   -0.0001              !
 ! R11   R(4,12)                 1.0701         -DE/DX =    0.0                 !
 ! R12   R(5,6)                  1.3284         -DE/DX =    0.0                 !
 ! R13   R(5,9)                  1.0719         -DE/DX =    0.0                 !
 ! R14   R(6,10)                 1.0722         -DE/DX =    0.0                 !
 ! A1    A(2,1,6)              121.4923         -DE/DX =    0.0                 !
 ! A2    A(2,1,7)              120.5068         -DE/DX =   -0.0001              !
 ! A3    A(6,1,7)              117.8092         -DE/DX =    0.0001              !
 ! A4    A(1,2,3)              120.9078         -DE/DX =   -0.0001              !
 ! A5    A(1,2,8)              120.9866         -DE/DX =    0.0                 !
 ! A6    A(3,2,8)              118.1046         -DE/DX =    0.0001              !
 ! A7    A(2,3,4)              117.2372         -DE/DX =    0.0001              !
 ! A8    A(2,3,11)             115.8151         -DE/DX =    0.0001              !
 ! A9    A(2,3,13)             118.0726         -DE/DX =    0.0                 !
 ! A10   A(4,3,13)             119.2375         -DE/DX =   -0.0001              !
 ! A11   A(11,3,13)            113.1898         -DE/DX =   -0.0002              !
 ! A12   A(3,4,5)              117.2372         -DE/DX =    0.0001              !
 ! A13   A(3,4,12)             119.2375         -DE/DX =   -0.0001              !
 ! A14   A(5,4,11)             115.8151         -DE/DX =    0.0001              !
 ! A15   A(5,4,12)             118.0726         -DE/DX =    0.0                 !
 ! A16   A(11,4,12)            113.1898         -DE/DX =   -0.0002              !
 ! A17   A(4,5,6)              120.9078         -DE/DX =   -0.0001              !
 ! A18   A(4,5,9)              118.1046         -DE/DX =    0.0001              !
 ! A19   A(6,5,9)              120.9866         -DE/DX =    0.0                 !
 ! A20   A(1,6,5)              121.4922         -DE/DX =    0.0                 !
 ! A21   A(1,6,10)             117.8092         -DE/DX =    0.0001              !
 ! A22   A(5,6,10)             120.5068         -DE/DX =   -0.0001              !
 ! D1    D(6,1,2,3)             -7.1063         -DE/DX =    0.0                 !
 ! D2    D(6,1,2,8)            172.527          -DE/DX =    0.0                 !
 ! D3    D(7,1,2,3)            178.0365         -DE/DX =    0.0                 !
 ! D4    D(7,1,2,8)             -2.3302         -DE/DX =    0.0                 !
 ! D5    D(2,1,6,5)              0.0            -DE/DX =    0.0                 !
 ! D6    D(2,1,6,10)          -174.9909         -DE/DX =    0.0                 !
 ! D7    D(7,1,6,5)            174.9908         -DE/DX =    0.0                 !
 ! D8    D(7,1,6,10)             0.0            -DE/DX =    0.0                 !
 ! D9    D(1,2,3,4)              6.814          -DE/DX =    0.0                 !
 ! D10   D(1,2,3,11)           -60.4865         -DE/DX =   -0.0001              !
 ! D11   D(1,2,3,13)           160.5966         -DE/DX =    0.0001              !
 ! D12   D(8,2,3,4)           -172.8297         -DE/DX =    0.0                 !
 ! D13   D(8,2,3,11)           119.8699         -DE/DX =   -0.0001              !
 ! D14   D(8,2,3,13)           -19.047          -DE/DX =    0.0                 !
 ! D15   D(2,3,4,5)              0.0            -DE/DX =    0.0                 !
 ! D16   D(2,3,4,12)           153.467          -DE/DX =    0.0001              !
 ! D17   D(13,3,4,5)          -153.467          -DE/DX =   -0.0001              !
 ! D18   D(13,3,4,12)            0.0            -DE/DX =    0.0                 !
 ! D19   D(3,4,5,6)             -6.814          -DE/DX =    0.0                 !
 ! D20   D(3,4,5,9)            172.8297         -DE/DX =    0.0                 !
 ! D21   D(11,4,5,6)            60.4865         -DE/DX =    0.0001              !
 ! D22   D(11,4,5,9)          -119.8698         -DE/DX =    0.0001              !
 ! D23   D(12,4,5,6)          -160.5966         -DE/DX =   -0.0001              !
 ! D24   D(12,4,5,9)            19.047          -DE/DX =    0.0                 !
 ! D25   D(4,5,6,1)              7.1064         -DE/DX =    0.0                 !
 ! D26   D(4,5,6,10)          -178.0365         -DE/DX =    0.0                 !
 ! D27   D(9,5,6,1)           -172.5269         -DE/DX =    0.0                 !
 ! D28   D(9,5,6,10)             2.3302         -DE/DX =    0.0                 !
 --------------------------------------------------------------------------------
 GradGradGradGradGradGradGradGradGradGradGradGradGradGradGradGradGradGrad

                          Input orientation:                          
 ---------------------------------------------------------------------
 Center     Atomic      Atomic             Coordinates (Angstroms)
 Number     Number       Type             X           Y           Z
 ---------------------------------------------------------------------
      1          6           0       -1.430774    0.730355    0.111589
      2          6           0       -0.332900    1.424271   -0.167153
      3          6           0        0.963127    0.751556   -0.335241
      4          6           0        0.963130   -0.751549   -0.335245
      5          6           0       -0.332894   -1.424270   -0.167160
      6          6           0       -1.430771   -0.730359    0.111587
      7          1           0       -2.366820    1.230552    0.263816
      8          1           0       -0.367529    2.489461   -0.281665
      9          1           0       -0.367519   -2.489460   -0.281676
     10          1           0       -2.366815   -1.230561    0.263811
     11          8           0        1.455777    0.000001    0.839366
     12          1           0        1.737955   -1.274208   -0.856352
     13          1           0        1.737951    1.274221   -0.856346
 ---------------------------------------------------------------------
                    Distance matrix (angstroms):
                    1          2          3          4          5
     1  C    0.000000
     2  C    1.328362   0.000000
     3  C    2.435337   1.469859   0.000000
     4  C    2.850697   2.538137   1.503104   0.000000
     5  C    2.434224   2.848541   2.538137   1.469859   0.000000
     6  C    1.460714   2.434224   2.850697   2.435337   1.328362
     7  H    1.072172   2.088083   3.417141   3.921245   3.372043
     8  H    2.092748   1.071887   2.189482   3.503950   3.915559
     9  H    3.413557   3.915559   3.503951   2.189482   1.071887
    10  H    2.178195   3.372043   3.921245   3.417141   2.088084
    11  O    3.065167   2.498197   1.478932   1.478932   2.498196
    12  H    3.872471   3.470624   2.230613   1.070085   2.187675
    13  H    3.357604   2.187676   1.070084   2.230613   3.470624
                    6          7          8          9         10
     6  C    0.000000
     7  H    2.178195   0.000000
     8  H    3.413557   2.424782   0.000000
     9  H    2.092748   4.258316   4.978921   0.000000
    10  H    1.072172   2.461113   4.258316   2.424782   0.000000
    11  O    3.065167   4.056817   3.283073   3.283072   4.056816
    12  H    3.357604   4.937386   4.350694   2.498022   4.255092
    13  H    3.872471   4.255093   2.498022   4.350694   4.937386
                   11         12         13
    11  O    0.000000
    12  H    2.139789   0.000000
    13  H    2.139789   2.548429   0.000000
 Stoichiometry    C6H6O
 Framework group  C1[X(C6H6O)]
 Deg. of freedom    33
 Full point group                 C1      NOp   1
 Largest Abelian subgroup         C1      NOp   1
 Largest concise Abelian subgroup C1      NOp   1
                         Standard orientation:                         
 ---------------------------------------------------------------------
 Center     Atomic      Atomic             Coordinates (Angstroms)
 Number     Number       Type             X           Y           Z
 ---------------------------------------------------------------------
      1          6           0        1.430557   -0.730356    0.120626
      2          6           0        0.335578   -1.424271   -0.169283
      3          6           0       -0.958669   -0.751553   -0.350559
      4          6           0       -0.958670    0.751552   -0.350559
      5          6           0        0.335576    1.424270   -0.169284
      6          6           0        1.430557    0.730357    0.120626
      7          1           0        2.365004   -1.230555    0.282375
      8          1           0        0.371370   -2.489461   -0.283439
      9          1           0        0.371367    2.489461   -0.283440
     10          1           0        2.365003    1.230557    0.282375
     11          8           0       -1.463253    0.000000    0.818973
     12          1           0       -1.728148    1.274213   -0.879528
     13          1           0       -1.728147   -1.274216   -0.879527
 ---------------------------------------------------------------------
 Rotational constants (GHZ):      4.5830722      3.5536006      2.3006808

 **********************************************************************

            Population analysis using the SCF density.

 **********************************************************************

 Orbital symmetries:
       Occupied  (A) (A) (A) (A) (A) (A) (A) (A) (A) (A) (A) (A)
                 (A) (A) (A) (A) (A) (A) (A) (A) (A) (A) (A) (A)
                 (A)
       Virtual   (A) (A) (A) (A) (A) (A) (A) (A) (A) (A) (A) (A)
                 (A) (A) (A) (A) (A) (A) (A) (A) (A) (A) (A) (A)
                 (A) (A) (A) (A) (A) (A) (A) (A) (A) (A) (A) (A)
                 (A) (A) (A) (A) (A) (A) (A) (A) (A) (A) (A) (A)
                 (A) (A)
 The electronic state is 1-A.
 Alpha  occ. eigenvalues --  -20.46591 -11.24038 -11.23998 -11.18842 -11.18790
 Alpha  occ. eigenvalues --  -11.18531 -11.18514  -1.39394  -1.12840  -1.03796
 Alpha  occ. eigenvalues --   -0.95560  -0.86614  -0.82148  -0.73942  -0.67783
 Alpha  occ. eigenvalues --   -0.64947  -0.63488  -0.61456  -0.53399  -0.52168
 Alpha  occ. eigenvalues --   -0.51493  -0.49918  -0.43848  -0.39659  -0.32811
 Alpha virt. eigenvalues --    0.10441   0.21202   0.25062   0.31111   0.31488
 Alpha virt. eigenvalues --    0.34679   0.35294   0.36591   0.37791   0.38427
 Alpha virt. eigenvalues --    0.46135   0.47856   0.48350   0.53177   0.72700
 Alpha virt. eigenvalues --    0.78095   0.84530   0.92523   0.94437   0.95924
 Alpha virt. eigenvalues --    0.99478   1.02916   1.03072   1.04175   1.05843
 Alpha virt. eigenvalues --    1.09844   1.11359   1.14528   1.14611   1.25894
 Alpha virt. eigenvalues --    1.30252   1.31348   1.35159   1.40419   1.41660
 Alpha virt. eigenvalues --    1.49278   1.49574   1.58143   1.59289   1.69228
 Alpha virt. eigenvalues --    1.72119   1.75460   1.83674   1.95036   2.02722
 Alpha virt. eigenvalues --    2.04907   2.32601   2.41068   2.81977   3.34543
          Condensed to atoms (all electrons):
               1          2          3          4          5          6
     1  C    5.178933   0.531883  -0.078494  -0.001216  -0.104139   0.366025
     2  C    0.531883   5.304401   0.241716  -0.063934   0.008481  -0.104139
     3  C   -0.078494   0.241716   5.436228   0.020904  -0.063934  -0.001216
     4  C   -0.001216  -0.063934   0.020904   5.436228   0.241716  -0.078494
     5  C   -0.104139   0.008481  -0.063934   0.241716   5.304401   0.531883
     6  C    0.366025  -0.104139  -0.001216  -0.078494   0.531883   5.178933
     7  H    0.399311  -0.035252   0.002523  -0.000031   0.002062  -0.031400
     8  H   -0.034740   0.399736  -0.035137   0.001780  -0.000137   0.002427
     9  H    0.002427  -0.000137   0.001780  -0.035137   0.399736  -0.034740
    10  H   -0.031400   0.002062  -0.000031   0.002523  -0.035252   0.399311
    11  O    0.002287  -0.046507   0.152648   0.152648  -0.046507   0.002287
    12  H    0.000049   0.000062  -0.019543   0.393692  -0.042349   0.002484
    13  H    0.002484  -0.042348   0.393692  -0.019543   0.000062   0.000049
               7          8          9         10         11         12
     1  C    0.399311  -0.034740   0.002427  -0.031400   0.002287   0.000049
     2  C   -0.035252   0.399736  -0.000137   0.002062  -0.046507   0.000062
     3  C    0.002523  -0.035137   0.001780  -0.000031   0.152648  -0.019543
     4  C   -0.000031   0.001780  -0.035137   0.002523   0.152648   0.393692
     5  C    0.002062  -0.000137   0.399736  -0.035252  -0.046507  -0.042349
     6  C   -0.031400   0.002427  -0.034740   0.399311   0.002287   0.002484
     7  H    0.419865  -0.001894  -0.000032  -0.000901  -0.000005   0.000000
     8  H   -0.001894   0.420650   0.000001  -0.000032   0.000032  -0.000010
     9  H   -0.000032   0.000001   0.420650  -0.001894   0.000032  -0.000677
    10  H   -0.000901  -0.000032  -0.001894   0.419865  -0.000005  -0.000031
    11  O   -0.000005   0.000032   0.000032  -0.000005   8.338067  -0.022209
    12  H    0.000000  -0.000010  -0.000677  -0.000031  -0.022209   0.445578
    13  H   -0.000031  -0.000677  -0.000010   0.000000  -0.022209   0.000889
              13
     1  C    0.002484
     2  C   -0.042348
     3  C    0.393692
     4  C   -0.019543
     5  C    0.000062
     6  C    0.000049
     7  H   -0.000031
     8  H   -0.000677
     9  H   -0.000010
    10  H    0.000000
    11  O   -0.022209
    12  H    0.000889
    13  H    0.445578
 Mulliken charges:
               1
     1  C   -0.233409
     2  C   -0.196024
     3  C   -0.051137
     4  C   -0.051137
     5  C   -0.196024
     6  C   -0.233409
     7  H    0.245785
     8  H    0.248001
     9  H    0.248001
    10  H    0.245785
    11  O   -0.510560
    12  H    0.242064
    13  H    0.242064
 Sum of Mulliken charges =   0.00000
 Mulliken charges with hydrogens summed into heavy atoms:
               1
     1  C    0.012376
     2  C    0.051977
     3  C    0.190927
     4  C    0.190927
     5  C    0.051978
     6  C    0.012376
    11  O   -0.510560
 Electronic spatial extent (au):  <R**2>=            578.4576
 Charge=              0.0000 electrons
 Dipole moment (field-independent basis, Debye):
    X=              1.3700    Y=              0.0000    Z=             -2.4253  Tot=              2.7855
 Quadrupole moment (field-independent basis, Debye-Ang):
   XX=            -39.1834   YY=            -35.3809   ZZ=            -45.8242
   XY=              0.0000   XZ=              5.3407   YZ=              0.0000
 Traceless Quadrupole moment (field-independent basis, Debye-Ang):
   XX=              0.9461   YY=              4.7486   ZZ=             -5.6947
   XY=              0.0000   XZ=              5.3407   YZ=              0.0000
 Octapole moment (field-independent basis, Debye-Ang**2):
  XXX=              5.0074  YYY=              0.0000  ZZZ=              1.6104  XYY=             -2.4350
  XXY=              0.0000  XXZ=             -3.5653  XZZ=             -3.2913  YZZ=              0.0000
  YYZ=             -2.2067  XYZ=              0.0000
 Hexadecapole moment (field-independent basis, Debye-Ang**3):
 XXXX=           -347.3346 YYYY=           -273.3044 ZZZZ=            -84.8641 XXXY=              0.0000
 XXXZ=             15.5612 YYYX=              0.0000 YYYZ=              0.0000 ZZZX=             -0.3802
 ZZZY=              0.0000 XXYY=           -101.9071 XXZZ=            -80.5427 YYZZ=            -68.3749
 XXYZ=              0.0000 YYXZ=              2.9950 ZZXY=              0.0000
 N-N= 2.803443637220D+02 E-N=-1.270510398463D+03  KE= 3.031793455284D+02
 1\1\GINC-QC0019\FOpt\RHF\3-21G\C6H6O1\ELIOT\05-Oct-2018\0\\# opt hf/3-
 21g\\benzox-hf.log\\0,1\C,-1.4307736077,0.73035456,0.1115893904\C,-0.3
 328997141,1.4242711099,-0.1671531619\C,0.9631271875,0.7515556253,-0.33
 52413984\C,0.9631297979,-0.7515487162,-0.3352450314\C,-0.3328940161,-1
 .4242698883,-0.1671596806\C,-1.4307707365,-0.7303589875,0.1115865695\H
 ,-2.3668198141,1.2305520362,0.2638158352\H,-0.3675286225,2.4894613188,
 -0.2816650366\H,-0.367519229,-2.4894597788,-0.2816763405\H,-2.36681488
 26,-1.2305606805,0.2638110122\O,1.4557770339,0.0000009944,0.8393659712
 \H,1.7379554654,-1.27420839,-0.8563524049\H,1.7379511378,1.2742207863,
 -0.8563457239\\Version=ES64L-G09RevE.01\State=1-A\HF=-303.7668283\RMSD
 =5.786e-09\RMSF=1.591e-04\Dipole=-0.5292688,0.0000015,-0.9596403\Quadr
 upole=0.7837704,3.5304792,-4.3142496,0.0000063,-3.9196193,0.0000105\PG
 =C01 [X(C6H6O1)]\\@


 HAPPINESS IS NOT HAVING WHAT YOU WANT --
 HAPPINESS IS WANTING WHAT YOU HAVE!

              -- FROM MRS. SEVERN'S DESK
 Job cpu time:       0 days  0 hours  0 minutes  6.0 seconds.
 File lengths (MBytes):  RWF=      5 Int=      0 D2E=      0 Chk=      2 Scr=      1
 Normal termination of Gaussian 09 at Fri Oct  5 10:54:54 2018.
