 Entering Gaussian System, Link 0=/home/eliot/software/g09E01/g09
 Initial command:
 /home/eliot/software/g09E01/l1.exe "/tmp/Gau-24275.inp" -scrdir="/tmp/"
 Entering Link 1 = /home/eliot/software/g09E01/l1.exe PID=     24277.
  
 Copyright (c) 1988,1990,1992,1993,1995,1998,2003,2009,2015,
            Gaussian, Inc.  All Rights Reserved.
  
 This is part of the Gaussian(R) 09 program.  It is based on
 the Gaussian(R) 03 system (copyright 2003, Gaussian, Inc.),
 the Gaussian(R) 98 system (copyright 1998, Gaussian, Inc.),
 the Gaussian(R) 94 system (copyright 1995, Gaussian, Inc.),
 the Gaussian 92(TM) system (copyright 1992, Gaussian, Inc.),
 the Gaussian 90(TM) system (copyright 1990, Gaussian, Inc.),
 the Gaussian 88(TM) system (copyright 1988, Gaussian, Inc.),
 the Gaussian 86(TM) system (copyright 1986, Carnegie Mellon
 University), and the Gaussian 82(TM) system (copyright 1983,
 Carnegie Mellon University). Gaussian is a federally registered
 trademark of Gaussian, Inc.
  
 This software contains proprietary and confidential information,
 including trade secrets, belonging to Gaussian, Inc.
  
 This software is provided under written license and may be
 used, copied, transmitted, or stored only in accord with that
 written license.
  
 The following legend is applicable only to US Government
 contracts under FAR:
  
                    RESTRICTED RIGHTS LEGEND
  
 Use, reproduction and disclosure by the US Government is
 subject to restrictions as set forth in subparagraphs (a)
 and (c) of the Commercial Computer Software - Restricted
 Rights clause in FAR 52.227-19.
  
 Gaussian, Inc.
 340 Quinnipiac St., Bldg. 40, Wallingford CT 06492
  
  
 ---------------------------------------------------------------
 Warning -- This program may not be used in any manner that
 competes with the business of Gaussian, Inc. or will provide
 assistance to any competitor of Gaussian, Inc.  The licensee
 of this program is prohibited from giving any competitor of
 Gaussian, Inc. access to this program.  By using this program,
 the user acknowledges that Gaussian, Inc. is engaged in the
 business of creating and licensing software in the field of
 computational chemistry and represents and warrants to the
 licensee that it is not a competitor of Gaussian, Inc. and that
 it will not use this program in any manner prohibited above.
 ---------------------------------------------------------------
  

 Cite this work as:
 Gaussian 09, Revision E.01,
 M. J. Frisch, G. W. Trucks, H. B. Schlegel, G. E. Scuseria, 
 M. A. Robb, J. R. Cheeseman, G. Scalmani, V. Barone, B. Mennucci, 
 G. A. Petersson, H. Nakatsuji, M. Caricato, X. Li, H. P. Hratchian, 
 A. F. Izmaylov, J. Bloino, G. Zheng, J. L. Sonnenberg, M. Hada, 
 M. Ehara, K. Toyota, R. Fukuda, J. Hasegawa, M. Ishida, T. Nakajima, 
 Y. Honda, O. Kitao, H. Nakai, T. Vreven, J. A. Montgomery, Jr., 
 J. E. Peralta, F. Ogliaro, M. Bearpark, J. J. Heyd, E. Brothers, 
 K. N. Kudin, V. N. Staroverov, T. Keith, R. Kobayashi, J. Normand, 
 K. Raghavachari, A. Rendell, J. C. Burant, S. S. Iyengar, J. Tomasi, 
 M. Cossi, N. Rega, J. M. Millam, M. Klene, J. E. Knox, J. B. Cross, 
 V. Bakken, C. Adamo, J. Jaramillo, R. Gomperts, R. E. Stratmann, 
 O. Yazyev, A. J. Austin, R. Cammi, C. Pomelli, J. W. Ochterski, 
 R. L. Martin, K. Morokuma, V. G. Zakrzewski, G. A. Voth, 
 P. Salvador, J. J. Dannenberg, S. Dapprich, A. D. Daniels, 
 O. Farkas, J. B. Foresman, J. V. Ortiz, J. Cioslowski, 
 and D. J. Fox, Gaussian, Inc., Wallingford CT, 2013.
 
 ******************************************
 Gaussian 09:  ES64L-G09RevE.01 30-Nov-2015
                 2-Oct-2018 
 ******************************************
 %nproc=4
 Will use up to    4 processors via shared memory.
 ----------------------
 # irc=calcfc b3lyp/svp
 ----------------------
 1/10=4,14=-1,18=10,26=3,38=1,44=3/1,23;
 2/12=2,17=6,18=5,29=1,40=1/2;
 3/5=18,7=101,11=2,16=1,25=1,30=1,71=2,74=-5,140=1/1,2,3;
 4//1;
 5/5=2,38=5/2;
 8/6=4,10=90,11=11/1;
 11/6=1,8=1,9=11,15=111,16=1/1,2,10;
 10/6=1,13=1/2;
 6/7=2,8=2,9=2,10=2,28=1/1;
 7/10=1,18=20,25=1/1,2,3,16;
 1/10=4,14=-1,18=10,26=3,44=3/23(2);
 2/29=1/2;
 99/5=20/99;
 2/29=1/2;
 3/5=18,7=101,11=2,16=1,25=1,30=1,71=2,74=-5,140=1/1,2,3;
 4/5=5,16=3,69=1/1;
 5/5=2,38=5/2;
 8/6=4,10=90,11=11/1;
 11/6=1,8=1,9=11,15=111,16=1/1,2,10;
 10/6=1,13=1/2;
 7/10=1,18=20,25=1/1,2,3,16;
 1/14=-1,18=10,26=3,44=3/23(-8);
 2/29=1/2;
 6/7=2,8=2,9=2,10=2,19=2,28=1/1;
 99/5=20,9=1/99;
 ------
 ts.log
 ------
 Symbolic Z-matrix:
 Charge =  0 Multiplicity = 1
 C                     1.41399  -0.70371   0.16313 
 C                     0.306    -1.45066  -0.24152 
 C                    -0.99007  -0.9199   -0.23037 
 C                    -0.99006   0.91991  -0.23036 
 C                     0.30602   1.45066  -0.24152 
 C                     1.41401   0.70369   0.16313 
 H                     2.37589  -1.21217   0.27758 
 H                     0.45104  -2.44555  -0.6733 
 H                     0.45109   2.44554  -0.67331 
 H                     2.37592   1.21213   0.27757 
 O                    -1.3443    0.00001   0.74631 
 H                    -1.82945   1.41209  -0.73696 
 H                    -1.82947  -1.41207  -0.73696 
 
 IRC-IRC-IRC-IRC-IRC-IRC-IRC-IRC-IRC-IRC-IRC-IRC-IRC-IRC-IRC-IRC-IRC-IRC
 ------------------------------------------------------------------------
 INPUT DATA FOR L123
 ------------------------------------------------------------------------
 GENERAL PARAMETERS:
 Follow reaction path in both directions.
 Maximum points per path      =  10
 Step size                    =   0.100 bohr
 Integration scheme           = HPC                                 
    Redo corrector integration= Yes                                 
    DWI Weight Power          =  2
    DWI will use Hessian update vectors when possible.
    Max correction cycles     =  20
 Initial Hessian              = CalcFC
 Hessian evaluation           = All updating
 Hessian updating method      = Bofill                              
 ------------------------------------------------------------------------
 IRC-IRC-IRC-IRC-IRC-IRC-IRC-IRC-IRC-IRC-IRC-IRC-IRC-IRC-IRC-IRC-IRC-IRC
                          Input orientation:                          
 ---------------------------------------------------------------------
 Center     Atomic      Atomic             Coordinates (Angstroms)
 Number     Number       Type             X           Y           Z
 ---------------------------------------------------------------------
      1          6           0        1.413990   -0.703710    0.163130
      2          6           0        0.306000   -1.450660   -0.241520
      3          6           0       -0.990070   -0.919900   -0.230370
      4          6           0       -0.990060    0.919910   -0.230360
      5          6           0        0.306020    1.450660   -0.241520
      6          6           0        1.414010    0.703690    0.163130
      7          1           0        2.375890   -1.212170    0.277580
      8          1           0        0.451040   -2.445550   -0.673300
      9          1           0        0.451090    2.445540   -0.673310
     10          1           0        2.375920    1.212130    0.277570
     11          8           0       -1.344300    0.000010    0.746310
     12          1           0       -1.829450    1.412090   -0.736960
     13          1           0       -1.829470   -1.412070   -0.736960
 ---------------------------------------------------------------------
                    Distance matrix (angstroms):
                    1          2          3          4          5
     1  C    0.000000
     2  C    1.396180   0.000000
     3  C    2.445626   1.400581   0.000000
     4  C    2.927530   2.701758   1.839810   0.000000
     5  C    2.456145   2.901320   2.701764   1.400587   0.000000
     6  C    1.407400   2.456146   2.927539   2.445637   1.396190
     7  H    1.094021   2.147274   3.416595   4.016639   3.412402
     8  H    2.158910   1.094201   2.144899   3.687721   3.922744
     9  H    3.397732   3.922737   3.687726   2.144916   1.094200
    10  H    2.146823   3.412400   4.016646   3.416607   2.147286
    11  O    2.905767   2.409096   1.387666   1.387655   2.409097
    12  H    3.975761   3.605682   2.529698   1.097023   2.192528
    13  H    3.439763   2.192529   1.097022   2.529700   3.605690
                    6          7          8          9         10
     6  C    0.000000
     7  H    2.146819   0.000000
     8  H    3.397740   2.475974   0.000000
     9  H    2.158909   4.241213   4.891090   0.000000
    10  H    1.094019   2.424300   4.241219   2.475973   0.000000
    11  O    2.905777   3.940673   3.349523   3.349532   3.940684
    12  H    3.439771   5.059735   4.481749   2.504582   4.330634
    13  H    3.975772   4.330624   2.504568   4.481759   5.059743
                   11         12         13
    11  O    0.000000
    12  H    2.104621   0.000000
    13  H    2.104626   2.824160   0.000000
 Symmetry turned off by external request.
 Stoichiometry    C6H6O
 Framework group  C1[X(C6H6O)]
 Deg. of freedom    33
 Full point group                 C1      NOp   1
 Rotational constants (GHZ):      4.3580897      3.7300650      2.2663139
 Standard basis: SVP (5D, 7F)
   128 basis functions,   217 primitive gaussians,   135 cartesian basis functions
    25 alpha electrons       25 beta electrons
       nuclear repulsion energy       279.6735677595 Hartrees.
 NAtoms=   13 NActive=   13 NUniq=   13 SFac= 1.00D+00 NAtFMM=   60 NAOKFM=F Big=F
 Integral buffers will be    131072 words long.
 Raffenetti 2 integral format.
 Two-electron integral symmetry is turned off.
 One-electron integrals computed using PRISM.
 NBasis=   128 RedAO= T EigKep=  5.18D-04  NBF=   128
 NBsUse=   128 1.00D-06 EigRej= -1.00D+00 NBFU=   128
 ExpMin= 1.22D-01 ExpMax= 2.27D+03 ExpMxC= 3.41D+02 IAcc=1 IRadAn=         1 AccDes= 0.00D+00
 Harris functional with IExCor=  402 and IRadAn=       1 diagonalized for initial guess.
 HarFok:  IExCor=  402 AccDes= 0.00D+00 IRadAn=         1 IDoV= 1 UseB2=F ITyADJ=14
 ICtDFT=  3500011 ScaDFX=  1.000000  1.000000  1.000000  1.000000
 FoFCou: FMM=F IPFlag=           0 FMFlag=      100000 FMFlg1=           0
         NFxFlg=           0 DoJE=T BraDBF=F KetDBF=T FulRan=T
         wScrn=  0.000000 ICntrl=     500 IOpCl=  0 I1Cent=   200000004 NGrid=           0
         NMat0=    1 NMatS0=      1 NMatT0=    0 NMatD0=    1 NMtDS0=    0 NMtDT0=    0
 Symmetry not used in FoFCou.
 Requested convergence on RMS density matrix=1.00D-08 within 128 cycles.
 Requested convergence on MAX density matrix=1.00D-06.
 Requested convergence on             energy=1.00D-06.
 No special actions if energy rises.
 Integral accuracy reduced to 1.0D-05 until final iterations.
 Initial convergence to 1.0D-05 achieved.  Increase integral accuracy.
 SCF Done:  E(RB3LYP) =  -307.163633733     A.U. after   14 cycles
            NFock= 14  Conv=0.59D-08     -V/T= 2.0103
 DoSCS=F DFT=T ScalE2(SS,OS)=  1.000000  1.000000
 Range of M.O.s used for correlation:     1   128
 NBasis=   128 NAE=    25 NBE=    25 NFC=     0 NFV=     0
 NROrb=    128 NOA=    25 NOB=    25 NVA=   103 NVB=   103
 Symmetrizing basis deriv contribution to polar:
 IMax=3 JMax=2 DiffMx= 0.00D+00
 G2DrvN: will do    14 centers at a time, making    1 passes.
 Calling FoFCou, ICntrl=  3107 FMM=F I1Cent=   0 AccDes= 0.00D+00.
 End of G2Drv F.D. properties file   721 does not exist.
 End of G2Drv F.D. properties file   722 does not exist.
 End of G2Drv F.D. properties file   788 does not exist.
          IDoAtm=1111111111111
          Differentiating once with respect to nuclear coordinates.
          There are    42 degrees of freedom in the 1st order CPHF.  IDoFFX=6 NUNeed=     0.
     36 vectors produced by pass  0 Test12= 6.13D-15 2.38D-09 XBig12= 1.28D-01 1.49D-01.
 AX will form    36 AO Fock derivatives at one time.
     36 vectors produced by pass  1 Test12= 6.13D-15 2.38D-09 XBig12= 3.08D-02 6.64D-02.
     36 vectors produced by pass  2 Test12= 6.13D-15 2.38D-09 XBig12= 3.11D-04 2.66D-03.
     36 vectors produced by pass  3 Test12= 6.13D-15 2.38D-09 XBig12= 1.20D-06 1.50D-04.
     36 vectors produced by pass  4 Test12= 6.13D-15 2.38D-09 XBig12= 1.77D-09 6.20D-06.
     31 vectors produced by pass  5 Test12= 6.13D-15 2.38D-09 XBig12= 1.63D-12 2.07D-07.
      7 vectors produced by pass  6 Test12= 6.13D-15 2.38D-09 XBig12= 1.65D-15 6.33D-09.
 InvSVY:  IOpt=1 It=  1 EMax= 2.22D-15
 Solved reduced A of dimension   218 with    36 vectors.
 End of Minotr F.D. properties file   721 does not exist.
 End of Minotr F.D. properties file   722 does not exist.
 End of Minotr F.D. properties file   788 does not exist.

 **********************************************************************

            Population analysis using the SCF density.

 **********************************************************************

 Alpha  occ. eigenvalues --  -19.15877 -10.25683 -10.25681 -10.19645 -10.19613
 Alpha  occ. eigenvalues --  -10.19379 -10.19374  -1.08446  -0.81710  -0.76549
 Alpha  occ. eigenvalues --   -0.68758  -0.64191  -0.57014  -0.53378  -0.52463
 Alpha  occ. eigenvalues --   -0.47305  -0.46095  -0.45200  -0.42313  -0.38374
 Alpha  occ. eigenvalues --   -0.36873  -0.34459  -0.28780  -0.24620  -0.24386
 Alpha virt. eigenvalues --   -0.02355  -0.01128   0.05659   0.08661   0.09374
 Alpha virt. eigenvalues --    0.10116   0.13029   0.14111   0.15585   0.16939
 Alpha virt. eigenvalues --    0.24410   0.29402   0.29929   0.30788   0.37551
 Alpha virt. eigenvalues --    0.40777   0.40832   0.43999   0.44150   0.45049
 Alpha virt. eigenvalues --    0.45173   0.48620   0.49289   0.50093   0.53060
 Alpha virt. eigenvalues --    0.55560   0.57507   0.59831   0.60400   0.62688
 Alpha virt. eigenvalues --    0.63208   0.64614   0.66902   0.68318   0.70888
 Alpha virt. eigenvalues --    0.71415   0.72374   0.74534   0.75379   0.75739
 Alpha virt. eigenvalues --    0.83675   0.86698   0.94149   0.96407   1.04554
 Alpha virt. eigenvalues --    1.08776   1.14768   1.21782   1.27843   1.28984
 Alpha virt. eigenvalues --    1.30378   1.32677   1.33431   1.42501   1.43732
 Alpha virt. eigenvalues --    1.46045   1.63714   1.68854   1.69345   1.70736
 Alpha virt. eigenvalues --    1.71378   1.72436   1.74066   1.74810   1.77858
 Alpha virt. eigenvalues --    1.78906   1.81787   1.86828   1.88155   1.91959
 Alpha virt. eigenvalues --    1.93487   1.96601   1.99280   2.00390   2.02355
 Alpha virt. eigenvalues --    2.04128   2.07757   2.15460   2.16764   2.20244
 Alpha virt. eigenvalues --    2.23587   2.34543   2.34673   2.39061   2.39281
 Alpha virt. eigenvalues --    2.46068   2.55028   2.55037   2.64886   2.65461
 Alpha virt. eigenvalues --    2.72051   2.73467   2.78736   2.85192   2.91686
 Alpha virt. eigenvalues --    2.94208   3.00242   3.04653   3.14968   3.23498
 Alpha virt. eigenvalues --    3.33042   3.43106   3.58292
          Condensed to atoms (all electrons):
               1          2          3          4          5          6
     1  C    4.911157   0.376016   0.027512  -0.063744  -0.001350   0.420155
     2  C    0.376016   5.025266   0.378372  -0.006454  -0.039139  -0.001351
     3  C    0.027512   0.378372   4.888985   0.041077  -0.006454  -0.063743
     4  C   -0.063744  -0.006454   0.041077   4.888981   0.378369   0.027512
     5  C   -0.001350  -0.039139  -0.006454   0.378369   5.025276   0.376019
     6  C    0.420155  -0.001351  -0.063743   0.027512   0.376019   4.911153
     7  H    0.415588  -0.059697   0.012416  -0.000804   0.013742  -0.057961
     8  H   -0.053469   0.415319  -0.057400   0.004415  -0.001964   0.011969
     9  H    0.011969  -0.001963   0.004414  -0.057400   0.415316  -0.053467
    10  H   -0.057961   0.013742  -0.000804   0.012415  -0.059697   0.415589
    11  O    0.002115  -0.061726   0.271947   0.271952  -0.061727   0.002115
    12  H    0.001041  -0.003051   0.002154   0.398217  -0.059675   0.010092
    13  H    0.010092  -0.059674   0.398217   0.002153  -0.003051   0.001041
               7          8          9         10         11         12
     1  C    0.415588  -0.053469   0.011969  -0.057961   0.002115   0.001041
     2  C   -0.059697   0.415319  -0.001963   0.013742  -0.061726  -0.003051
     3  C    0.012416  -0.057400   0.004414  -0.000804   0.271947   0.002154
     4  C   -0.000804   0.004415  -0.057400   0.012415   0.271952   0.398217
     5  C    0.013742  -0.001964   0.415316  -0.059697  -0.061727  -0.059675
     6  C   -0.057961   0.011969  -0.053467   0.415589   0.002115   0.010092
     7  H    0.712011  -0.012649  -0.000300  -0.015786  -0.000114   0.000016
     8  H   -0.012649   0.700448   0.000044  -0.000300   0.003527   0.000090
     9  H   -0.000300   0.000044   0.700447  -0.012649   0.003527  -0.007146
    10  H   -0.015786  -0.000300  -0.012649   0.712009  -0.000114  -0.000371
    11  O   -0.000114   0.003527   0.003527  -0.000114   7.919719  -0.038564
    12  H    0.000016   0.000090  -0.007146  -0.000371  -0.038564   0.679573
    13  H   -0.000371  -0.007147   0.000090   0.000016  -0.038564   0.000133
              13
     1  C    0.010092
     2  C   -0.059674
     3  C    0.398217
     4  C    0.002153
     5  C   -0.003051
     6  C    0.001041
     7  H   -0.000371
     8  H   -0.007147
     9  H    0.000090
    10  H    0.000016
    11  O   -0.038564
    12  H    0.000133
    13  H    0.679570
 Mulliken charges:
               1
     1  C    0.000878
     2  C    0.024340
     3  C    0.103308
     4  C    0.103311
     5  C    0.024335
     6  C    0.000877
     7  H   -0.006089
     8  H   -0.002883
     9  H   -0.002883
    10  H   -0.006088
    11  O   -0.274092
    12  H    0.017493
    13  H    0.017494
 Sum of Mulliken charges =   0.00000
 Mulliken charges with hydrogens summed into heavy atoms:
               1
     1  C   -0.005211
     2  C    0.021457
     3  C    0.120801
     4  C    0.120804
     5  C    0.021452
     6  C   -0.005211
    11  O   -0.274092
 APT charges:
               1
     1  C   -0.490057
     2  C   -0.492163
     3  C   -0.387575
     4  C   -0.387574
     5  C   -0.492163
     6  C   -0.490052
     7  H    0.491009
     8  H    0.469160
     9  H    0.469160
    10  H    0.491013
    11  O   -0.088689
    12  H    0.453963
    13  H    0.453968
 Sum of APT charges =   0.00000
 APT charges with hydrogens summed into heavy atoms:
               1
     1  C    0.000952
     2  C   -0.023002
     3  C    0.066393
     4  C    0.066388
     5  C   -0.023003
     6  C    0.000961
    11  O   -0.088689
 Electronic spatial extent (au):  <R**2>=            582.0685
 Charge=              0.0000 electrons
 Dipole moment (field-independent basis, Debye):
    X=              0.3569    Y=              0.0000    Z=             -1.6159  Tot=              1.6548
 Quadrupole moment (field-independent basis, Debye-Ang):
   XX=            -38.1198   YY=            -36.6992   ZZ=            -44.1656
   XY=              0.0001   XZ=              2.8424   YZ=              0.0000
 Traceless Quadrupole moment (field-independent basis, Debye-Ang):
   XX=              1.5418   YY=              2.9623   ZZ=             -4.5041
   XY=              0.0001   XZ=              2.8424   YZ=              0.0000
 Octapole moment (field-independent basis, Debye-Ang**2):
  XXX=             -1.8515  YYY=             -0.0002  ZZZ=              2.6603  XYY=             -2.0256
  XXY=              0.0000  XXZ=             -1.8551  XZZ=             -2.7317  YZZ=              0.0000
  YYZ=             -4.1107  XYZ=             -0.0001
 Hexadecapole moment (field-independent basis, Debye-Ang**3):
 XXXX=           -348.1208 YYYY=           -318.5179 ZZZZ=            -82.7697 XXXY=              0.0004
 XXXZ=              7.9097 YYYX=              0.0001 YYYZ=             -0.0001 ZZZX=             -3.6999
 ZZZY=             -0.0001 XXYY=           -106.5482 XXZZ=            -78.5612 YYZZ=            -68.9937
 XXYZ=             -0.0001 YYXZ=             -0.1702 ZZXY=              0.0000
 N-N= 2.796735677595D+02 E-N=-1.273000728076D+03  KE= 3.040250321771D+02
  Exact polarizability:   0.000   0.000   0.000   0.000   0.000   0.000
 Approx polarizability: 129.579   0.000 139.441  11.774   0.000  56.125
 Calling FoFJK, ICntrl=    100147 FMM=F ISym2X=0 I1Cent= 0 IOpClX= 0 NMat=1 NMatS=1 NMatT=0.
 -------------------------------------------------------------------
 Center     Atomic                   Forces (Hartrees/Bohr)
 Number     Number              X              Y              Z
 -------------------------------------------------------------------
      1        6           0.000033149    0.000011094   -0.000007242
      2        6          -0.000003817   -0.000024682   -0.000009318
      3        6          -0.000026568    0.000024340   -0.000007561
      4        6          -0.000021825   -0.000017854   -0.000013481
      5        6           0.000002077    0.000017878   -0.000006091
      6        6           0.000021448   -0.000008503   -0.000010498
      7        1          -0.000002865   -0.000000203    0.000010329
      8        1           0.000002084   -0.000004459    0.000006366
      9        1           0.000000123    0.000005304    0.000006098
     10        1          -0.000002303    0.000000484    0.000010743
     11        8          -0.000009225   -0.000003375    0.000022447
     12        1           0.000003952    0.000007443   -0.000000616
     13        1           0.000003771   -0.000007466   -0.000001176
 -------------------------------------------------------------------
 Cartesian Forces:  Max     0.000033149 RMS     0.000012840
 IRC-IRC-IRC-IRC-IRC-IRC-IRC-IRC-IRC-IRC-IRC-IRC-IRC-IRC-IRC-IRC-IRC-IRC
          ******** Start new reaction path calculation ********
 Supplied step size of   0.1000 bohr.
    Integration on MW PES will use step size of   0.2463 sqrt(amu)*bohr.
 Point Number:   0          Path Number:   1
 Calculating another point on the path.
 IRC-IRC-IRC-IRC-IRC-IRC-IRC-IRC-IRC-IRC-IRC-IRC-IRC-IRC-IRC-IRC-IRC-IRC
                          Input orientation:                          
 ---------------------------------------------------------------------
 Center     Atomic      Atomic             Coordinates (Angstroms)
 Number     Number       Type             X           Y           Z
 ---------------------------------------------------------------------
      1          6           0        1.434374   -0.706675    0.137648
      2          6           0        0.329376   -1.448599   -0.262898
      3          6           0       -0.968697   -0.898861   -0.263301
      4          6           0       -0.968688    0.898871   -0.263291
      5          6           0        0.329396    1.448598   -0.262898
      6          6           0        1.434394    0.706654    0.137648
      7          1           0        2.397270   -1.213834    0.249111
      8          1           0        0.466569   -2.451768   -0.677950
      9          1           0        0.466619    2.451758   -0.677961
     10          1           0        2.397300    1.213794    0.249101
     11          8           0       -1.326098    0.000010    0.733696
     12          1           0       -1.807644    1.395344   -0.766936
     13          1           0       -1.807664   -1.395324   -0.766936
 ---------------------------------------------------------------------
                    Distance matrix (angstroms):
                    1          2          3          4          5
     1  C    0.000000
     2  C    1.389932   0.000000
     3  C    2.443859   1.409683   0.000000
     4  C    2.917745   2.682459   1.797733   0.000000
     5  C    2.454917   2.897197   2.682464   1.409688   0.000000
     6  C    1.413329   2.454917   2.917754   2.443870   1.389942
     7  H    1.093985   2.143235   3.419285   4.006962   3.409810
     8  H    2.155736   1.094276   2.154865   3.668609   3.924786
     9  H    3.402567   3.924780   3.668614   2.154882   1.094275
    10  H    2.151243   3.409807   4.006969   3.419297   2.143246
    11  O    2.911165   2.415007   1.389139   1.389128   2.415009
    12  H    3.968304   3.592898   2.494165   1.097265   2.196322
    13  H    3.435596   2.196322   1.097264   2.494167   3.592906
                    6          7          8          9         10
     6  C    0.000000
     7  H    2.151239   0.000000
     8  H    3.402575   2.473768   0.000000
     9  H    2.155735   4.245402   4.903526   0.000000
    10  H    1.093983   2.427627   4.245408   2.473767   0.000000
    11  O    2.911174   3.946100   3.349271   3.349280   3.946111
    12  H    3.435604   5.051877   4.469926   2.509223   4.329762
    13  H    3.968315   4.329752   2.509208   4.469935   5.051885
                   11         12         13
    11  O    0.000000
    12  H    2.104932   0.000000
    13  H    2.104937   2.790668   0.000000
 Symmetry turned off by external request.
 Stoichiometry    C6H6O
 Framework group  C1[X(C6H6O)]
 Deg. of freedom    33
 Full point group                 C1      NOp   1
 Rotational constants (GHZ):      4.3845327      3.7197160      2.2754673
 Standard basis: SVP (5D, 7F)
   128 basis functions,   217 primitive gaussians,   135 cartesian basis functions
    25 alpha electrons       25 beta electrons
       nuclear repulsion energy       279.8956428589 Hartrees.
 NAtoms=   13 NActive=   13 NUniq=   13 SFac= 1.00D+00 NAtFMM=   60 NAOKFM=F Big=F
 Integral buffers will be    131072 words long.
 Raffenetti 2 integral format.
 Two-electron integral symmetry is turned off.
 One-electron integrals computed using PRISM.
 NBasis=   128 RedAO= T EigKep=  4.96D-04  NBF=   128
 NBsUse=   128 1.00D-06 EigRej= -1.00D+00 NBFU=   128
 Initial guess from the checkpoint file:  "/tmp/Gau-24277.chk"
 B after Tr=     0.039481    0.000000   -0.044772
         Rot=    1.000000    0.000000    0.000036    0.000000 Ang=   0.00 deg.
 ExpMin= 1.22D-01 ExpMax= 2.27D+03 ExpMxC= 3.41D+02 IAcc=1 IRadAn=         1 AccDes= 0.00D+00
 Harris functional with IExCor=  402 and IRadAn=       1 diagonalized for initial guess.
 HarFok:  IExCor=  402 AccDes= 0.00D+00 IRadAn=         1 IDoV= 1 UseB2=F ITyADJ=14
 ICtDFT=  3500011 ScaDFX=  1.000000  1.000000  1.000000  1.000000
 FoFCou: FMM=F IPFlag=           0 FMFlag=      100000 FMFlg1=           0
         NFxFlg=           0 DoJE=T BraDBF=F KetDBF=T FulRan=T
         wScrn=  0.000000 ICntrl=     500 IOpCl=  0 I1Cent=   200000004 NGrid=           0
         NMat0=    1 NMatS0=      1 NMatT0=    0 NMatD0=    1 NMtDS0=    0 NMtDT0=    0
 Symmetry not used in FoFCou.
 Requested convergence on RMS density matrix=1.00D-08 within 128 cycles.
 Requested convergence on MAX density matrix=1.00D-06.
 Requested convergence on             energy=1.00D-06.
 No special actions if energy rises.
 Integral accuracy reduced to 1.0D-05 until final iterations.
 Initial convergence to 1.0D-05 achieved.  Increase integral accuracy.
 SCF Done:  E(RB3LYP) =  -307.163909508     A.U. after   13 cycles
            NFock= 13  Conv=0.37D-08     -V/T= 2.0103
 DoSCS=F DFT=T ScalE2(SS,OS)=  1.000000  1.000000
 Range of M.O.s used for correlation:     1   128
 NBasis=   128 NAE=    25 NBE=    25 NFC=     0 NFV=     0
 NROrb=    128 NOA=    25 NOB=    25 NVA=   103 NVB=   103
 Symmetrizing basis deriv contribution to polar:
 IMax=3 JMax=2 DiffMx= 0.00D+00
 Calling FoFJK, ICntrl=      2147 FMM=F ISym2X=0 I1Cent= 0 IOpClX= 0 NMat=1 NMatS=1 NMatT=0.
 -------------------------------------------------------------------
 Center     Atomic                   Forces (Hartrees/Bohr)
 Number     Number              X              Y              Z
 -------------------------------------------------------------------
      1        6           0.000029265   -0.000569076   -0.000369546
      2        6           0.000418933    0.000182178    0.000380302
      3        6           0.000033270    0.004453004   -0.001761571
      4        6           0.000037919   -0.004446547   -0.001767519
      5        6           0.000424897   -0.000189021    0.000383460
      6        6           0.000017571    0.000571666   -0.000372835
      7        1          -0.000002976   -0.000034967   -0.000029350
      8        1          -0.000115101   -0.000004465    0.000417409
      9        1          -0.000117054    0.000005315    0.000417128
     10        1          -0.000002413    0.000035247   -0.000028948
     11        8          -0.000803135   -0.000003310    0.002901815
     12        1           0.000039500   -0.000231638   -0.000084894
     13        1           0.000039322    0.000231615   -0.000085451
 -------------------------------------------------------------------
 Cartesian Forces:  Max     0.004453004 RMS     0.001209415
 IRC-IRC-IRC-IRC-IRC-IRC-IRC-IRC-IRC-IRC-IRC-IRC-IRC-IRC-IRC-IRC-IRC-IRC
 Pt  1 Step number   1 out of a maximum of  20
 Modified Bulirsch-Stoer Extrapolation Cycles:
    EPS =    0.000010000000000
 Maximum DWI energy   std dev =  0.000000576 at pt    12
 Maximum DWI gradient std dev =  0.057609857 at pt     2
 CORRECTOR INTEGRATION CONVERGENCE:
   Recorrection delta-x convergence threshold:    0.010000
   Delta-x Convergence Met
 Point Number:   1          Path Number:   1
   CHANGE IN THE REACTION COORDINATE =    0.24628
   NET REACTION COORDINATE UP TO THIS POINT =    0.24628
  # OF POINTS ALONG THE PATH =   1
  # OF STEPS =   1

 Calculating another point on the path.
 IRC-IRC-IRC-IRC-IRC-IRC-IRC-IRC-IRC-IRC-IRC-IRC-IRC-IRC-IRC-IRC-IRC-IRC
                          Input orientation:                          
 ---------------------------------------------------------------------
 Center     Atomic      Atomic             Coordinates (Angstroms)
 Number     Number       Type             X           Y           Z
 ---------------------------------------------------------------------
      1          6           0        1.434045   -0.709653    0.135804
      2          6           0        0.331737   -1.446715   -0.260440
      3          6           0       -0.968331   -0.877725   -0.272265
      4          6           0       -0.968318    0.877739   -0.272262
      5          6           0        0.331759    1.446711   -0.260439
      6          6           0        1.434056    0.709632    0.135803
      7          1           0        2.397576   -1.215778    0.246029
      8          1           0        0.460670   -2.458481   -0.657164
      9          1           0        0.460706    2.458475   -0.657165
     10          1           0        2.397596    1.215742    0.246025
     11          8           0       -1.329132    0.000009    0.744661
     12          1           0       -1.806530    1.379880   -0.772164
     13          1           0       -1.806551   -1.379852   -0.772168
 ---------------------------------------------------------------------
                    Distance matrix (angstroms):
                    1          2          3          4          5
     1  C    0.000000
     2  C    1.383963   0.000000
     3  C    2.442576   1.419178   0.000000
     4  C    2.908209   2.663338   1.755464   0.000000
     5  C    2.453966   2.893426   2.663339   1.419179   0.000000
     6  C    1.419285   2.453967   2.908210   2.442576   1.383962
     7  H    1.093940   2.139518   3.422315   3.997585   3.407779
     8  H    2.152826   1.094388   2.165406   3.649729   3.927408
     9  H    3.407818   3.927408   3.649729   2.165407   1.094388
    10  H    2.155859   3.407780   3.997586   3.422316   2.139517
    11  O    2.917100   2.421099   1.390946   1.390945   2.421101
    12  H    3.961298   3.581018   2.459524   1.097564   2.199684
    13  H    3.431478   2.199684   1.097564   2.459524   3.581018
                    6          7          8          9         10
     6  C    0.000000
     7  H    2.155859   0.000000
     8  H    3.407818   2.472181   0.000000
     9  H    2.152826   4.250572   4.916956   0.000000
    10  H    1.093940   2.431520   4.250571   2.472181   0.000000
    11  O    2.917101   3.951598   3.348533   3.348535   3.951600
    12  H    3.431477   5.044668   4.459422   2.513355   4.328779
    13  H    3.961299   4.328779   2.513356   4.459420   5.044668
                   11         12         13
    11  O    0.000000
    12  H    2.105401   0.000000
    13  H    2.105401   2.759732   0.000000
 Symmetry turned off by external request.
 Stoichiometry    C6H6O
 Framework group  C1[X(C6H6O)]
 Deg. of freedom    33
 Full point group                 C1      NOp   1
 Rotational constants (GHZ):      4.4097411      3.7088305      2.2839538
 Standard basis: SVP (5D, 7F)
   128 basis functions,   217 primitive gaussians,   135 cartesian basis functions
    25 alpha electrons       25 beta electrons
       nuclear repulsion energy       280.0987855527 Hartrees.
 NAtoms=   13 NActive=   13 NUniq=   13 SFac= 1.00D+00 NAtFMM=   60 NAOKFM=F Big=F
 Integral buffers will be    131072 words long.
 Raffenetti 2 integral format.
 Two-electron integral symmetry is turned off.
 One-electron integrals computed using PRISM.
 NBasis=   128 RedAO= T EigKep=  4.75D-04  NBF=   128
 NBsUse=   128 1.00D-06 EigRej= -1.00D+00 NBFU=   128
 Initial guess from the checkpoint file:  "/tmp/Gau-24277.chk"
 B after Tr=    -0.000175    0.000000    0.000466
         Rot=    1.000000    0.000000    0.000063    0.000000 Ang=  -0.01 deg.
 ExpMin= 1.22D-01 ExpMax= 2.27D+03 ExpMxC= 3.41D+02 IAcc=1 IRadAn=         1 AccDes= 0.00D+00
 Harris functional with IExCor=  402 and IRadAn=       1 diagonalized for initial guess.
 HarFok:  IExCor=  402 AccDes= 0.00D+00 IRadAn=         1 IDoV= 1 UseB2=F ITyADJ=14
 ICtDFT=  3500011 ScaDFX=  1.000000  1.000000  1.000000  1.000000
 FoFCou: FMM=F IPFlag=           0 FMFlag=      100000 FMFlg1=           0
         NFxFlg=           0 DoJE=T BraDBF=F KetDBF=T FulRan=T
         wScrn=  0.000000 ICntrl=     500 IOpCl=  0 I1Cent=   200000004 NGrid=           0
         NMat0=    1 NMatS0=      1 NMatT0=    0 NMatD0=    1 NMtDS0=    0 NMtDT0=    0
 Symmetry not used in FoFCou.
 Requested convergence on RMS density matrix=1.00D-08 within 128 cycles.
 Requested convergence on MAX density matrix=1.00D-06.
 Requested convergence on             energy=1.00D-06.
 No special actions if energy rises.
 Integral accuracy reduced to 1.0D-05 until final iterations.
 Initial convergence to 1.0D-05 achieved.  Increase integral accuracy.
 SCF Done:  E(RB3LYP) =  -307.164716871     A.U. after   13 cycles
            NFock= 13  Conv=0.37D-08     -V/T= 2.0104
 DoSCS=F DFT=T ScalE2(SS,OS)=  1.000000  1.000000
 Range of M.O.s used for correlation:     1   128
 NBasis=   128 NAE=    25 NBE=    25 NFC=     0 NFV=     0
 NROrb=    128 NOA=    25 NOB=    25 NVA=   103 NVB=   103
 Symmetrizing basis deriv contribution to polar:
 IMax=3 JMax=2 DiffMx= 0.00D+00
 Calling FoFJK, ICntrl=      2147 FMM=F ISym2X=0 I1Cent= 0 IOpClX= 0 NMat=1 NMatS=1 NMatT=0.
 -------------------------------------------------------------------
 Center     Atomic                   Forces (Hartrees/Bohr)
 Number     Number              X              Y              Z
 -------------------------------------------------------------------
      1        6           0.000095194   -0.001072656   -0.000759788
      2        6           0.000693942    0.000378489    0.000752183
      3        6           0.000180106    0.008438869   -0.003417630
      4        6           0.000180286   -0.008438540   -0.003418022
      5        6           0.000693147   -0.000377967    0.000751921
      6        6           0.000095472    0.001072235   -0.000759558
      7        1           0.000005421   -0.000074241   -0.000053435
      8        1          -0.000250151    0.000039565    0.000845325
      9        1          -0.000250213   -0.000039950    0.000845509
     10        1           0.000005422    0.000074249   -0.000053370
     11        8          -0.001622834   -0.000000016    0.005599813
     12        1           0.000087121   -0.000467506   -0.000166480
     13        1           0.000087088    0.000467468   -0.000166468
 -------------------------------------------------------------------
 Cartesian Forces:  Max     0.008438869 RMS     0.002308164
 IRC-IRC-IRC-IRC-IRC-IRC-IRC-IRC-IRC-IRC-IRC-IRC-IRC-IRC-IRC-IRC-IRC-IRC
 Pt  2 Step number   1 out of a maximum of  20
 Modified Bulirsch-Stoer Extrapolation Cycles:
    EPS =    0.000010000000000
 Maximum DWI energy   std dev =  0.000002040 at pt    21
 Maximum DWI gradient std dev =  0.043639832 at pt    55
 CORRECTOR INTEGRATION CONVERGENCE:
   Recorrection delta-x convergence threshold:    0.010000
   Delta-x Convergence Met
 Point Number:   2          Path Number:   1
   CHANGE IN THE REACTION COORDINATE =    0.24622
   NET REACTION COORDINATE UP TO THIS POINT =    0.49250
  # OF POINTS ALONG THE PATH =   2
  # OF STEPS =   1

 Calculating another point on the path.
 IRC-IRC-IRC-IRC-IRC-IRC-IRC-IRC-IRC-IRC-IRC-IRC-IRC-IRC-IRC-IRC-IRC-IRC
                          Input orientation:                          
 ---------------------------------------------------------------------
 Center     Atomic      Atomic             Coordinates (Angstroms)
 Number     Number       Type             X           Y           Z
 ---------------------------------------------------------------------
      1          6           0        1.434029   -0.712583    0.133739
      2          6           0        0.333871   -1.444888   -0.258002
      3          6           0       -0.967896   -0.856552   -0.281087
      4          6           0       -0.967883    0.856567   -0.281085
      5          6           0        0.333892    1.444883   -0.258001
      6          6           0        1.434040    0.712562    0.133738
      7          1           0        2.397848   -1.218046    0.244078
      8          1           0        0.454019   -2.465198   -0.634873
      9          1           0        0.454055    2.465191   -0.634873
     10          1           0        2.397867    1.218010    0.244076
     11          8           0       -1.332364    0.000009    0.755426
     12          1           0       -1.804952    1.365005   -0.777210
     13          1           0       -1.804972   -1.364977   -0.777214
 ---------------------------------------------------------------------
                    Distance matrix (angstroms):
                    1          2          3          4          5
     1  C    0.000000
     2  C    1.378434   0.000000
     3  C    2.441731   1.428729   0.000000
     4  C    2.898878   2.644199   1.713118   0.000000
     5  C    2.453247   2.889771   2.644199   1.428729   0.000000
     6  C    1.425145   2.453247   2.898878   2.441731   1.378434
     7  H    1.093899   2.136246   3.425596   3.988478   3.406346
     8  H    2.150080   1.094303   2.175948   3.630577   3.930038
     9  H    3.413116   3.930037   3.630576   2.175947   1.094303
    10  H    2.160636   3.406345   3.988479   3.425596   2.136246
    11  O    2.923561   2.427158   1.393159   1.393159   2.427160
    12  H    3.954390   3.569263   2.425308   1.097877   2.202410
    13  H    3.427328   2.202411   1.097877   2.425308   3.569262
                    6          7          8          9         10
     6  C    0.000000
     7  H    2.160636   0.000000
     8  H    3.413116   2.471116   0.000000
     9  H    2.150080   4.256421   4.930389   0.000000
    10  H    1.093899   2.436056   4.256421   2.471116   0.000000
    11  O    2.923563   3.957223   3.346840   3.346841   3.957225
    12  H    3.427328   5.037729   4.449007   2.516700   4.327623
    13  H    3.954390   4.327623   2.516702   4.449006   5.037729
                   11         12         13
    11  O    0.000000
    12  H    2.106070   0.000000
    13  H    2.106070   2.729982   0.000000
 Symmetry turned off by external request.
 Stoichiometry    C6H6O
 Framework group  C1[X(C6H6O)]
 Deg. of freedom    33
 Full point group                 C1      NOp   1
 Rotational constants (GHZ):      4.4341780      3.6975207      2.2920007
 Standard basis: SVP (5D, 7F)
   128 basis functions,   217 primitive gaussians,   135 cartesian basis functions
    25 alpha electrons       25 beta electrons
       nuclear repulsion energy       280.2946177959 Hartrees.
 NAtoms=   13 NActive=   13 NUniq=   13 SFac= 1.00D+00 NAtFMM=   60 NAOKFM=F Big=F
 Integral buffers will be    131072 words long.
 Raffenetti 2 integral format.
 Two-electron integral symmetry is turned off.
 One-electron integrals computed using PRISM.
 NBasis=   128 RedAO= T EigKep=  4.55D-04  NBF=   128
 NBsUse=   128 1.00D-06 EigRej= -1.00D+00 NBFU=   128
 Initial guess from the checkpoint file:  "/tmp/Gau-24277.chk"
 B after Tr=    -0.000189    0.000000    0.000572
         Rot=    1.000000    0.000000    0.000079    0.000000 Ang=   0.01 deg.
 ExpMin= 1.22D-01 ExpMax= 2.27D+03 ExpMxC= 3.41D+02 IAcc=1 IRadAn=         1 AccDes= 0.00D+00
 Harris functional with IExCor=  402 and IRadAn=       1 diagonalized for initial guess.
 HarFok:  IExCor=  402 AccDes= 0.00D+00 IRadAn=         1 IDoV= 1 UseB2=F ITyADJ=14
 ICtDFT=  3500011 ScaDFX=  1.000000  1.000000  1.000000  1.000000
 FoFCou: FMM=F IPFlag=           0 FMFlag=      100000 FMFlg1=           0
         NFxFlg=           0 DoJE=T BraDBF=F KetDBF=T FulRan=T
         wScrn=  0.000000 ICntrl=     500 IOpCl=  0 I1Cent=   200000004 NGrid=           0
         NMat0=    1 NMatS0=      1 NMatT0=    0 NMatD0=    1 NMtDS0=    0 NMtDT0=    0
 Symmetry not used in FoFCou.
 Requested convergence on RMS density matrix=1.00D-08 within 128 cycles.
 Requested convergence on MAX density matrix=1.00D-06.
 Requested convergence on             energy=1.00D-06.
 No special actions if energy rises.
 Integral accuracy reduced to 1.0D-05 until final iterations.
 Initial convergence to 1.0D-05 achieved.  Increase integral accuracy.
 SCF Done:  E(RB3LYP) =  -307.165976215     A.U. after   13 cycles
            NFock= 13  Conv=0.35D-08     -V/T= 2.0104
 DoSCS=F DFT=T ScalE2(SS,OS)=  1.000000  1.000000
 Range of M.O.s used for correlation:     1   128
 NBasis=   128 NAE=    25 NBE=    25 NFC=     0 NFV=     0
 NROrb=    128 NOA=    25 NOB=    25 NVA=   103 NVB=   103
 Symmetrizing basis deriv contribution to polar:
 IMax=3 JMax=2 DiffMx= 0.00D+00
 Calling FoFJK, ICntrl=      2147 FMM=F ISym2X=0 I1Cent= 0 IOpClX= 0 NMat=1 NMatS=1 NMatT=0.
 -------------------------------------------------------------------
 Center     Atomic                   Forces (Hartrees/Bohr)
 Number     Number              X              Y              Z
 -------------------------------------------------------------------
      1        6           0.000232919   -0.001446434   -0.001175850
      2        6           0.000830383    0.000687212    0.001136639
      3        6           0.000377313    0.011286207   -0.004779012
      4        6           0.000376989   -0.011286314   -0.004779163
      5        6           0.000830648   -0.000687542    0.001136798
      6        6           0.000232592    0.001446525   -0.001175772
      7        1           0.000012636   -0.000111869   -0.000045785
      8        1          -0.000371546   -0.000002674    0.001195161
      9        1          -0.000371526    0.000002872    0.001195131
     10        1           0.000012611    0.000111859   -0.000045765
     11        8          -0.002413977    0.000000150    0.007826530
     12        1           0.000125460   -0.000668760   -0.000244468
     13        1           0.000125499    0.000668770   -0.000244443
 -------------------------------------------------------------------
 Cartesian Forces:  Max     0.011286314 RMS     0.003137775
 IRC-IRC-IRC-IRC-IRC-IRC-IRC-IRC-IRC-IRC-IRC-IRC-IRC-IRC-IRC-IRC-IRC-IRC
 Pt  3 Step number   1 out of a maximum of  20
 Modified Bulirsch-Stoer Extrapolation Cycles:
    EPS =    0.000010000000000
 Maximum DWI energy   std dev =  0.000005763 at pt    73
 Maximum DWI gradient std dev =  0.032771195 at pt    28
 CORRECTOR INTEGRATION CONVERGENCE:
   Recorrection delta-x convergence threshold:    0.010000
   Delta-x Convergence Met
 Point Number:   3          Path Number:   1
   CHANGE IN THE REACTION COORDINATE =    0.24623
   NET REACTION COORDINATE UP TO THIS POINT =    0.73873
  # OF POINTS ALONG THE PATH =   3
  # OF STEPS =   1

 Calculating another point on the path.
 IRC-IRC-IRC-IRC-IRC-IRC-IRC-IRC-IRC-IRC-IRC-IRC-IRC-IRC-IRC-IRC-IRC-IRC
                          Input orientation:                          
 ---------------------------------------------------------------------
 Center     Atomic      Atomic             Coordinates (Angstroms)
 Number     Number       Type             X           Y           Z
 ---------------------------------------------------------------------
      1          6           0        1.434365   -0.715415    0.131389
      2          6           0        0.335722   -1.442991   -0.255480
      3          6           0       -0.967332   -0.835605   -0.289874
      4          6           0       -0.967320    0.835620   -0.289873
      5          6           0        0.335744    1.442986   -0.255479
      6          6           0        1.434376    0.715393    0.131388
      7          1           0        2.398103   -1.220651    0.243086
      8          1           0        0.446513   -2.471985   -0.610752
      9          1           0        0.446550    2.471979   -0.610751
     10          1           0        2.398122    1.220615    0.243084
     11          8           0       -1.335840    0.000009    0.766167
     12          1           0       -1.802932    1.350069   -0.782826
     13          1           0       -1.802951   -1.350040   -0.782830
 ---------------------------------------------------------------------
                    Distance matrix (angstroms):
                    1          2          3          4          5
     1  C    0.000000
     2  C    1.373335   0.000000
     3  C    2.441322   1.438072   0.000000
     4  C    2.889854   2.625103   1.671225   0.000000
     5  C    2.452617   2.885978   2.625103   1.438072   0.000000
     6  C    1.430808   2.452617   2.889854   2.441322   1.373335
     7  H    1.093861   2.133406   3.429061   3.979744   3.405416
     8  H    2.147595   1.094222   2.186244   3.611390   3.932619
     9  H    3.418483   3.932619   3.611389   2.186244   1.094222
    10  H    2.165529   3.405416   3.979744   3.429061   2.133406
    11  O    2.930667   2.433132   1.396163   1.396163   2.433133
    12  H    3.947417   3.557122   2.391317   1.098139   2.204691
    13  H    3.423267   2.204691   1.098139   2.391317   3.557122
                    6          7          8          9         10
     6  C    0.000000
     7  H    2.165529   0.000000
     8  H    3.418483   2.470543   0.000000
     9  H    2.147595   4.262994   4.943964   0.000000
    10  H    1.093861   2.441266   4.262993   2.470543   0.000000
    11  O    2.930668   3.963074   3.344166   3.344167   3.963076
    12  H    3.423267   5.030884   4.438210   2.519615   4.326442
    13  H    3.947417   4.326443   2.519616   4.438209   5.030883
                   11         12         13
    11  O    0.000000
    12  H    2.107182   0.000000
    13  H    2.107182   2.700109   0.000000
 Symmetry turned off by external request.
 Stoichiometry    C6H6O
 Framework group  C1[X(C6H6O)]
 Deg. of freedom    33
 Full point group                 C1      NOp   1
 Rotational constants (GHZ):      4.4577036      3.6856266      2.2996182
 Standard basis: SVP (5D, 7F)
   128 basis functions,   217 primitive gaussians,   135 cartesian basis functions
    25 alpha electrons       25 beta electrons
       nuclear repulsion energy       280.4762927830 Hartrees.
 NAtoms=   13 NActive=   13 NUniq=   13 SFac= 1.00D+00 NAtFMM=   60 NAOKFM=F Big=F
 Integral buffers will be    131072 words long.
 Raffenetti 2 integral format.
 Two-electron integral symmetry is turned off.
 One-electron integrals computed using PRISM.
 NBasis=   128 RedAO= T EigKep=  4.34D-04  NBF=   128
 NBsUse=   128 1.00D-06 EigRej= -1.00D+00 NBFU=   128
 Initial guess from the checkpoint file:  "/tmp/Gau-24277.chk"
 B after Tr=    -0.000208    0.000000    0.000656
         Rot=    1.000000    0.000000    0.000102    0.000000 Ang=  -0.01 deg.
 ExpMin= 1.22D-01 ExpMax= 2.27D+03 ExpMxC= 3.41D+02 IAcc=1 IRadAn=         1 AccDes= 0.00D+00
 Harris functional with IExCor=  402 and IRadAn=       1 diagonalized for initial guess.
 HarFok:  IExCor=  402 AccDes= 0.00D+00 IRadAn=         1 IDoV= 1 UseB2=F ITyADJ=14
 ICtDFT=  3500011 ScaDFX=  1.000000  1.000000  1.000000  1.000000
 FoFCou: FMM=F IPFlag=           0 FMFlag=      100000 FMFlg1=           0
         NFxFlg=           0 DoJE=T BraDBF=F KetDBF=T FulRan=T
         wScrn=  0.000000 ICntrl=     500 IOpCl=  0 I1Cent=   200000004 NGrid=           0
         NMat0=    1 NMatS0=      1 NMatT0=    0 NMatD0=    1 NMtDS0=    0 NMtDT0=    0
 Symmetry not used in FoFCou.
 Requested convergence on RMS density matrix=1.00D-08 within 128 cycles.
 Requested convergence on MAX density matrix=1.00D-06.
 Requested convergence on             energy=1.00D-06.
 No special actions if energy rises.
 Integral accuracy reduced to 1.0D-05 until final iterations.
 Initial convergence to 1.0D-05 achieved.  Increase integral accuracy.
 SCF Done:  E(RB3LYP) =  -307.167533791     A.U. after   13 cycles
            NFock= 13  Conv=0.31D-08     -V/T= 2.0103
 DoSCS=F DFT=T ScalE2(SS,OS)=  1.000000  1.000000
 Range of M.O.s used for correlation:     1   128
 NBasis=   128 NAE=    25 NBE=    25 NFC=     0 NFV=     0
 NROrb=    128 NOA=    25 NOB=    25 NVA=   103 NVB=   103
 Symmetrizing basis deriv contribution to polar:
 IMax=3 JMax=2 DiffMx= 0.00D+00
 Calling FoFJK, ICntrl=      2147 FMM=F ISym2X=0 I1Cent= 0 IOpClX= 0 NMat=1 NMatS=1 NMatT=0.
 -------------------------------------------------------------------
 Center     Atomic                   Forces (Hartrees/Bohr)
 Number     Number              X              Y              Z
 -------------------------------------------------------------------
      1        6           0.000487716   -0.001605447   -0.001574367
      2        6           0.000751131    0.000899262    0.001421491
      3        6           0.000605721    0.012518403   -0.005518706
      4        6           0.000605459   -0.012518442   -0.005518848
      5        6           0.000751090   -0.000899175    0.001421519
      6        6           0.000487715    0.001605382   -0.001574230
      7        1           0.000013805   -0.000145944   -0.000003269
      8        1          -0.000480073   -0.000000857    0.001471663
      9        1          -0.000480070    0.000000798    0.001471685
     10        1           0.000013787    0.000145943   -0.000003246
     11        8          -0.003061663    0.000000095    0.009032448
     12        1           0.000152685   -0.000781951   -0.000313083
     13        1           0.000152695    0.000781934   -0.000313058
 -------------------------------------------------------------------
 Cartesian Forces:  Max     0.012518442 RMS     0.003543514
 IRC-IRC-IRC-IRC-IRC-IRC-IRC-IRC-IRC-IRC-IRC-IRC-IRC-IRC-IRC-IRC-IRC-IRC
 Pt  4 Step number   1 out of a maximum of  20
 Modified Bulirsch-Stoer Extrapolation Cycles:
    EPS =    0.000010000000000
 Maximum DWI energy   std dev =  0.000009951 at pt    36
 Maximum DWI gradient std dev =  0.032311072 at pt    38
 CORRECTOR INTEGRATION CONVERGENCE:
   Recorrection delta-x convergence threshold:    0.010000
   Delta-x Convergence Met
 Point Number:   4          Path Number:   1
   CHANGE IN THE REACTION COORDINATE =    0.24622
   NET REACTION COORDINATE UP TO THIS POINT =    0.98495
  # OF POINTS ALONG THE PATH =   4
  # OF STEPS =   1

 Calculating another point on the path.
 IRC-IRC-IRC-IRC-IRC-IRC-IRC-IRC-IRC-IRC-IRC-IRC-IRC-IRC-IRC-IRC-IRC-IRC
                          Input orientation:                          
 ---------------------------------------------------------------------
 Center     Atomic      Atomic             Coordinates (Angstroms)
 Number     Number       Type             X           Y           Z
 ---------------------------------------------------------------------
      1          6           0        1.435183   -0.718118    0.128579
      2          6           0        0.337222   -1.440967   -0.252719
      3          6           0       -0.966567   -0.815149   -0.298639
      4          6           0       -0.966555    0.815163   -0.298637
      5          6           0        0.337243    1.440962   -0.252719
      6          6           0        1.435194    0.718096    0.128578
      7          1           0        2.398337   -1.223747    0.243149
      8          1           0        0.437789   -2.479044   -0.583762
      9          1           0        0.437825    2.479038   -0.583761
     10          1           0        2.398356    1.223712    0.243147
     11          8           0       -1.339728    0.000009    0.776868
     12          1           0       -1.800427    1.334766   -0.789482
     13          1           0       -1.800447   -1.334738   -0.789485
 ---------------------------------------------------------------------
                    Distance matrix (angstroms):
                    1          2          3          4          5
     1  C    0.000000
     2  C    1.368729   0.000000
     3  C    2.441379   1.446935   0.000000
     4  C    2.881285   2.606159   1.630312   0.000000
     5  C    2.452037   2.881929   2.606159   1.446935   0.000000
     6  C    1.436214   2.452037   2.881286   2.441379   1.368729
     7  H    1.093826   2.131025   3.432647   3.971547   3.405095
     8  H    2.145480   1.094215   2.195918   3.592392   3.935244
     9  H    3.424026   3.935244   3.592391   2.195918   1.094215
    10  H    2.170606   3.405095   3.971547   3.432647   2.131025
    11  O    2.938726   2.438979   1.400159   1.400159   2.438980
    12  H    3.940348   3.544341   2.357623   1.098298   2.206587
    13  H    3.419409   2.206587   1.098298   2.357623   3.544341
                    6          7          8          9         10
     6  C    0.000000
     7  H    2.170606   0.000000
     8  H    3.424026   2.470486   0.000000
     9  H    2.145480   4.270598   4.958082   0.000000
    10  H    1.093826   2.447459   4.270597   2.470486   0.000000
    11  O    2.938727   3.969328   3.340147   3.340148   3.969329
    12  H    3.419409   5.024136   4.426859   2.522192   4.325325
    13  H    3.940348   4.325325   2.522193   4.426858   5.024136
                   11         12         13
    11  O    0.000000
    12  H    2.108856   0.000000
    13  H    2.108856   2.669505   0.000000
 Symmetry turned off by external request.
 Stoichiometry    C6H6O
 Framework group  C1[X(C6H6O)]
 Deg. of freedom    33
 Full point group                 C1      NOp   1
 Rotational constants (GHZ):      4.4802028      3.6729621      2.3066207
 Standard basis: SVP (5D, 7F)
   128 basis functions,   217 primitive gaussians,   135 cartesian basis functions
    25 alpha electrons       25 beta electrons
       nuclear repulsion energy       280.6367762454 Hartrees.
 NAtoms=   13 NActive=   13 NUniq=   13 SFac= 1.00D+00 NAtFMM=   60 NAOKFM=F Big=F
 Integral buffers will be    131072 words long.
 Raffenetti 2 integral format.
 Two-electron integral symmetry is turned off.
 One-electron integrals computed using PRISM.
 NBasis=   128 RedAO= T EigKep=  4.14D-04  NBF=   128
 NBsUse=   128 1.00D-06 EigRej= -1.00D+00 NBFU=   128
 Initial guess from the checkpoint file:  "/tmp/Gau-24277.chk"
 B after Tr=    -0.000241    0.000000    0.000769
         Rot=    1.000000    0.000000    0.000135    0.000000 Ang=   0.02 deg.
 ExpMin= 1.22D-01 ExpMax= 2.27D+03 ExpMxC= 3.41D+02 IAcc=1 IRadAn=         1 AccDes= 0.00D+00
 Harris functional with IExCor=  402 and IRadAn=       1 diagonalized for initial guess.
 HarFok:  IExCor=  402 AccDes= 0.00D+00 IRadAn=         1 IDoV= 1 UseB2=F ITyADJ=14
 ICtDFT=  3500011 ScaDFX=  1.000000  1.000000  1.000000  1.000000
 FoFCou: FMM=F IPFlag=           0 FMFlag=      100000 FMFlg1=           0
         NFxFlg=           0 DoJE=T BraDBF=F KetDBF=T FulRan=T
         wScrn=  0.000000 ICntrl=     500 IOpCl=  0 I1Cent=   200000004 NGrid=           0
         NMat0=    1 NMatS0=      1 NMatT0=    0 NMatD0=    1 NMtDS0=    0 NMtDT0=    0
 Symmetry not used in FoFCou.
 Requested convergence on RMS density matrix=1.00D-08 within 128 cycles.
 Requested convergence on MAX density matrix=1.00D-06.
 Requested convergence on             energy=1.00D-06.
 No special actions if energy rises.
 Integral accuracy reduced to 1.0D-05 until final iterations.
 Initial convergence to 1.0D-05 achieved.  Increase integral accuracy.
 SCF Done:  E(RB3LYP) =  -307.169175362     A.U. after   13 cycles
            NFock= 13  Conv=0.23D-08     -V/T= 2.0103
 DoSCS=F DFT=T ScalE2(SS,OS)=  1.000000  1.000000
 Range of M.O.s used for correlation:     1   128
 NBasis=   128 NAE=    25 NBE=    25 NFC=     0 NFV=     0
 NROrb=    128 NOA=    25 NOB=    25 NVA=   103 NVB=   103
 Symmetrizing basis deriv contribution to polar:
 IMax=3 JMax=2 DiffMx= 0.00D+00
 Calling FoFJK, ICntrl=      2147 FMM=F ISym2X=0 I1Cent= 0 IOpClX= 0 NMat=1 NMatS=1 NMatT=0.
 -------------------------------------------------------------------
 Center     Atomic                   Forces (Hartrees/Bohr)
 Number     Number              X              Y              Z
 -------------------------------------------------------------------
      1        6           0.000815041   -0.001516892   -0.001925817
      2        6           0.000484704    0.000933028    0.001608039
      3        6           0.000828906    0.011661139   -0.005480214
      4        6           0.000828703   -0.011661184   -0.005480346
      5        6           0.000484736   -0.000933126    0.001608095
      6        6           0.000814959    0.001516894   -0.001925726
      7        1           0.000009838   -0.000166558    0.000060361
      8        1          -0.000555278    0.000101121    0.001634775
      9        1          -0.000555276   -0.000101055    0.001634776
     10        1           0.000009827    0.000166554    0.000060375
     11        8          -0.003490060    0.000000078    0.008942593
     12        1           0.000161937   -0.000773665   -0.000368466
     13        1           0.000161963    0.000773665   -0.000368444
 -------------------------------------------------------------------
 Cartesian Forces:  Max     0.011661184 RMS     0.003411343
 IRC-IRC-IRC-IRC-IRC-IRC-IRC-IRC-IRC-IRC-IRC-IRC-IRC-IRC-IRC-IRC-IRC-IRC
 Pt  5 Step number   1 out of a maximum of  20
 Modified Bulirsch-Stoer Extrapolation Cycles:
    EPS =    0.000010000000000
 Maximum DWI energy   std dev =  0.000013259 at pt    36
 Maximum DWI gradient std dev =  0.039148795 at pt    57
 CORRECTOR INTEGRATION CONVERGENCE:
   Recorrection delta-x convergence threshold:    0.010000
   Delta-x Convergence Met
 Point Number:   5          Path Number:   1
   CHANGE IN THE REACTION COORDINATE =    0.24619
   NET REACTION COORDINATE UP TO THIS POINT =    1.23114
  # OF POINTS ALONG THE PATH =   5
  # OF STEPS =   1

 Calculating another point on the path.
 IRC-IRC-IRC-IRC-IRC-IRC-IRC-IRC-IRC-IRC-IRC-IRC-IRC-IRC-IRC-IRC-IRC-IRC
                          Input orientation:                          
 ---------------------------------------------------------------------
 Center     Atomic      Atomic             Coordinates (Angstroms)
 Number     Number       Type             X           Y           Z
 ---------------------------------------------------------------------
      1          6           0        1.436724   -0.720649    0.124953
      2          6           0        0.338303   -1.438772   -0.249397
      3          6           0       -0.965535   -0.795703   -0.307338
      4          6           0       -0.965524    0.795717   -0.307337
      5          6           0        0.338325    1.438767   -0.249396
      6          6           0        1.436735    0.720628    0.124953
      7          1           0        2.398572   -1.227573    0.244419
      8          1           0        0.427348   -2.486649   -0.552101
      9          1           0        0.427384    2.486643   -0.552101
     10          1           0        2.398591    1.227537    0.244418
     11          8           0       -1.344351    0.000009    0.787390
     12          1           0       -1.797299    1.318906   -0.797910
     13          1           0       -1.797318   -1.318878   -0.797912
 ---------------------------------------------------------------------
                    Distance matrix (angstroms):
                    1          2          3          4          5
     1  C    0.000000
     2  C    1.364685   0.000000
     3  C    2.441999   1.454954   0.000000
     4  C    2.873506   2.587714   1.591420   0.000000
     5  C    2.451468   2.877538   2.587714   1.454954   0.000000
     6  C    1.441276   2.451468   2.873506   2.441999   1.364685
     7  H    1.093799   2.129124   3.436302   3.964250   3.405561
     8  H    2.143829   1.094352   2.204389   3.574064   3.938077
     9  H    3.429853   3.938077   3.574063   2.204389   1.094352
    10  H    2.175980   3.405561   3.964251   3.436302   2.129124
    11  O    2.948313   2.444656   1.405378   1.405378   2.444657
    12  H    3.933238   3.530785   2.324663   1.098288   2.208194
    13  H    3.415931   2.208194   1.098288   2.324663   3.530785
                    6          7          8          9         10
     6  C    0.000000
     7  H    2.175980   0.000000
     8  H    3.429853   2.470920   0.000000
     9  H    2.143829   4.279653   4.973292   0.000000
    10  H    1.093799   2.455111   4.279652   2.470920   0.000000
    11  O    2.948314   3.976337   3.334160   3.334161   3.976338
    12  H    3.415931   5.017603   4.414943   2.524529   4.324383
    13  H    3.933238   4.324383   2.524530   4.414942   5.017602
                   11         12         13
    11  O    0.000000
    12  H    2.111356   0.000000
    13  H    2.111356   2.637783   0.000000
 Symmetry turned off by external request.
 Stoichiometry    C6H6O
 Framework group  C1[X(C6H6O)]
 Deg. of freedom    33
 Full point group                 C1      NOp   1
 Rotational constants (GHZ):      4.5014000      3.6591533      2.3125466
 Standard basis: SVP (5D, 7F)
   128 basis functions,   217 primitive gaussians,   135 cartesian basis functions
    25 alpha electrons       25 beta electrons
       nuclear repulsion energy       280.7602572693 Hartrees.
 NAtoms=   13 NActive=   13 NUniq=   13 SFac= 1.00D+00 NAtFMM=   60 NAOKFM=F Big=F
 Integral buffers will be    131072 words long.
 Raffenetti 2 integral format.
 Two-electron integral symmetry is turned off.
 One-electron integrals computed using PRISM.
 NBasis=   128 RedAO= T EigKep=  3.94D-04  NBF=   128
 NBsUse=   128 1.00D-06 EigRej= -1.00D+00 NBFU=   128
 Initial guess from the checkpoint file:  "/tmp/Gau-24277.chk"
 B after Tr=    -0.000291    0.000000    0.000936
         Rot=    1.000000    0.000000    0.000183    0.000000 Ang=   0.02 deg.
 ExpMin= 1.22D-01 ExpMax= 2.27D+03 ExpMxC= 3.41D+02 IAcc=1 IRadAn=         1 AccDes= 0.00D+00
 Harris functional with IExCor=  402 and IRadAn=       1 diagonalized for initial guess.
 HarFok:  IExCor=  402 AccDes= 0.00D+00 IRadAn=         1 IDoV= 1 UseB2=F ITyADJ=14
 ICtDFT=  3500011 ScaDFX=  1.000000  1.000000  1.000000  1.000000
 FoFCou: FMM=F IPFlag=           0 FMFlag=      100000 FMFlg1=           0
         NFxFlg=           0 DoJE=T BraDBF=F KetDBF=T FulRan=T
         wScrn=  0.000000 ICntrl=     500 IOpCl=  0 I1Cent=   200000004 NGrid=           0
         NMat0=    1 NMatS0=      1 NMatT0=    0 NMatD0=    1 NMtDS0=    0 NMtDT0=    0
 Symmetry not used in FoFCou.
 Requested convergence on RMS density matrix=1.00D-08 within 128 cycles.
 Requested convergence on MAX density matrix=1.00D-06.
 Requested convergence on             energy=1.00D-06.
 No special actions if energy rises.
 Integral accuracy reduced to 1.0D-05 until final iterations.
 Initial convergence to 1.0D-05 achieved.  Increase integral accuracy.
 SCF Done:  E(RB3LYP) =  -307.170650098     A.U. after   12 cycles
            NFock= 12  Conv=0.82D-08     -V/T= 2.0103
 DoSCS=F DFT=T ScalE2(SS,OS)=  1.000000  1.000000
 Range of M.O.s used for correlation:     1   128
 NBasis=   128 NAE=    25 NBE=    25 NFC=     0 NFV=     0
 NROrb=    128 NOA=    25 NOB=    25 NVA=   103 NVB=   103

 **** Warning!!: The largest alpha MO coefficient is  0.10182765D+02

 Symmetrizing basis deriv contribution to polar:
 IMax=3 JMax=2 DiffMx= 0.00D+00
 Calling FoFJK, ICntrl=      2147 FMM=F ISym2X=0 I1Cent= 0 IOpClX= 0 NMat=1 NMatS=1 NMatT=0.
 -------------------------------------------------------------------
 Center     Atomic                   Forces (Hartrees/Bohr)
 Number     Number              X              Y              Z
 -------------------------------------------------------------------
      1        6           0.001131261   -0.001189861   -0.002184299
      2        6           0.000125973    0.000668346    0.001725284
      3        6           0.000993913    0.008610090   -0.004564900
      4        6           0.000993766   -0.008610117   -0.004565009
      5        6           0.000125977   -0.000668279    0.001725304
      6        6           0.001131239    0.001189844   -0.002184213
      7        1          -0.000001373   -0.000156156    0.000117052
      8        1          -0.000559929    0.000352316    0.001628131
      9        1          -0.000559940   -0.000352386    0.001628156
     10        1          -0.000001387    0.000156151    0.000117064
     11        8          -0.003646376    0.000000060    0.007321982
     12        1           0.000133430   -0.000598538   -0.000382286
     13        1           0.000133446    0.000598530   -0.000382266
 -------------------------------------------------------------------
 Cartesian Forces:  Max     0.008610117 RMS     0.002717168
 IRC-IRC-IRC-IRC-IRC-IRC-IRC-IRC-IRC-IRC-IRC-IRC-IRC-IRC-IRC-IRC-IRC-IRC
 Pt  6 Step number   1 out of a maximum of  20
 Modified Bulirsch-Stoer Extrapolation Cycles:
    EPS =    0.000010000000000
 Maximum DWI energy   std dev =  0.000015084 at pt    71
 Maximum DWI gradient std dev =  0.057601128 at pt    29
 CORRECTOR INTEGRATION CONVERGENCE:
   Recorrection delta-x convergence threshold:    0.010000
   Delta-x Convergence Met
 Point Number:   6          Path Number:   1
   CHANGE IN THE REACTION COORDINATE =    0.24605
   NET REACTION COORDINATE UP TO THIS POINT =    1.47719
  # OF POINTS ALONG THE PATH =   6
  # OF STEPS =   1

 Calculating another point on the path.
 IRC-IRC-IRC-IRC-IRC-IRC-IRC-IRC-IRC-IRC-IRC-IRC-IRC-IRC-IRC-IRC-IRC-IRC
                          Input orientation:                          
 ---------------------------------------------------------------------
 Center     Atomic      Atomic             Coordinates (Angstroms)
 Number     Number       Type             X           Y           Z
 ---------------------------------------------------------------------
      1          6           0        1.439539   -0.722881    0.119669
      2          6           0        0.338895   -1.436507   -0.244665
      3          6           0       -0.964184   -0.778572   -0.315637
      4          6           0       -0.964173    0.778586   -0.315635
      5          6           0        0.338916    1.436503   -0.244665
      6          6           0        1.439550    0.722860    0.119669
      7          1           0        2.398998   -1.232474    0.246743
      8          1           0        0.414568   -2.495456   -0.512212
      9          1           0        0.414605    2.495450   -0.512211
     10          1           0        2.399016    1.232439    0.246742
     11          8           0       -1.350511    0.000009    0.796973
     12          1           0       -1.793220    1.302858   -0.809133
     13          1           0       -1.793239   -1.302830   -0.809135
 ---------------------------------------------------------------------
                    Distance matrix (angstroms):
                    1          2          3          4          5
     1  C    0.000000
     2  C    1.361404   0.000000
     3  C    2.443457   1.461483   0.000000
     4  C    2.867355   2.570927   1.557158   0.000000
     5  C    2.450928   2.873010   2.570926   1.461483   0.000000
     6  C    1.445741   2.450928   2.867355   2.443457   1.361404
     7  H    1.093798   2.127706   3.439955   3.958731   3.407177
     8  H    2.142863   1.094842   2.210722   3.557937   3.941776
     9  H    3.436192   3.941776   3.557937   2.210722   1.094842
    10  H    2.181747   3.407177   3.958731   3.439955   2.127706
    11  O    2.960690   2.450037   1.411855   1.411855   2.450037
    12  H    3.926452   3.516910   2.294164   1.098053   2.209636
    13  H    3.413191   2.209636   1.098053   2.294164   3.516910
                    6          7          8          9         10
     6  C    0.000000
     7  H    2.181747   0.000000
     8  H    3.436192   2.471659   0.000000
     9  H    2.142863   4.290832   4.990905   0.000000
    10  H    1.093798   2.464913   4.290832   2.471659   0.000000
    11  O    2.960691   3.985045   3.325178   3.325179   3.985045
    12  H    3.413191   5.011733   4.403371   2.526841   4.323734
    13  H    3.926452   4.323734   2.526842   4.403370   5.011733
                   11         12         13
    11  O    0.000000
    12  H    2.114942   0.000000
    13  H    2.114943   2.605688   0.000000
 Symmetry turned off by external request.
 Stoichiometry    C6H6O
 Framework group  C1[X(C6H6O)]
 Deg. of freedom    33
 Full point group                 C1      NOp   1
 Rotational constants (GHZ):      4.5205813      3.6435187      2.3160169
 Standard basis: SVP (5D, 7F)
   128 basis functions,   217 primitive gaussians,   135 cartesian basis functions
    25 alpha electrons       25 beta electrons
       nuclear repulsion energy       280.8095162627 Hartrees.
 NAtoms=   13 NActive=   13 NUniq=   13 SFac= 1.00D+00 NAtFMM=   60 NAOKFM=F Big=F
 Integral buffers will be    131072 words long.
 Raffenetti 2 integral format.
 Two-electron integral symmetry is turned off.
 One-electron integrals computed using PRISM.
 NBasis=   128 RedAO= T EigKep=  3.74D-04  NBF=   128
 NBsUse=   128 1.00D-06 EigRej= -1.00D+00 NBFU=   128
 Initial guess from the checkpoint file:  "/tmp/Gau-24277.chk"
 B after Tr=    -0.000351    0.000000    0.001207
         Rot=    1.000000    0.000000    0.000251    0.000000 Ang=   0.03 deg.
 ExpMin= 1.22D-01 ExpMax= 2.27D+03 ExpMxC= 3.41D+02 IAcc=1 IRadAn=         1 AccDes= 0.00D+00
 Harris functional with IExCor=  402 and IRadAn=       1 diagonalized for initial guess.
 HarFok:  IExCor=  402 AccDes= 0.00D+00 IRadAn=         1 IDoV= 1 UseB2=F ITyADJ=14
 ICtDFT=  3500011 ScaDFX=  1.000000  1.000000  1.000000  1.000000
 FoFCou: FMM=F IPFlag=           0 FMFlag=      100000 FMFlg1=           0
         NFxFlg=           0 DoJE=T BraDBF=F KetDBF=T FulRan=T
         wScrn=  0.000000 ICntrl=     500 IOpCl=  0 I1Cent=   200000004 NGrid=           0
         NMat0=    1 NMatS0=      1 NMatT0=    0 NMatD0=    1 NMtDS0=    0 NMtDT0=    0
 Symmetry not used in FoFCou.
 Requested convergence on RMS density matrix=1.00D-08 within 128 cycles.
 Requested convergence on MAX density matrix=1.00D-06.
 Requested convergence on             energy=1.00D-06.
 No special actions if energy rises.
 Integral accuracy reduced to 1.0D-05 until final iterations.
 Initial convergence to 1.0D-05 achieved.  Increase integral accuracy.
 SCF Done:  E(RB3LYP) =  -307.171723463     A.U. after   12 cycles
            NFock= 12  Conv=0.59D-08     -V/T= 2.0103
 DoSCS=F DFT=T ScalE2(SS,OS)=  1.000000  1.000000
 Range of M.O.s used for correlation:     1   128
 NBasis=   128 NAE=    25 NBE=    25 NFC=     0 NFV=     0
 NROrb=    128 NOA=    25 NOB=    25 NVA=   103 NVB=   103

 **** Warning!!: The largest alpha MO coefficient is  0.10534333D+02

 Symmetrizing basis deriv contribution to polar:
 IMax=3 JMax=2 DiffMx= 0.00D+00
 Calling FoFJK, ICntrl=      2147 FMM=F ISym2X=0 I1Cent= 0 IOpClX= 0 NMat=1 NMatS=1 NMatT=0.
 -------------------------------------------------------------------
 Center     Atomic                   Forces (Hartrees/Bohr)
 Number     Number              X              Y              Z
 -------------------------------------------------------------------
      1        6           0.001250709   -0.000751886   -0.002271027
      2        6          -0.000087284   -0.000127605    0.001832371
      3        6           0.000994641    0.004184105   -0.002844647
      4        6           0.000994559   -0.004184152   -0.002844741
      5        6          -0.000087208    0.000127516    0.001832395
      6        6           0.001250659    0.000751901   -0.002270971
      7        1          -0.000021061   -0.000080769    0.000121962
      8        1          -0.000432393    0.000883695    0.001366643
      9        1          -0.000432417   -0.000883632    0.001366654
     10        1          -0.000021075    0.000080760    0.000121962
     11        8          -0.003501615    0.000000052    0.004179581
     12        1           0.000046230   -0.000204950   -0.000295097
     13        1           0.000046255    0.000204964   -0.000295085
 -------------------------------------------------------------------
 Cartesian Forces:  Max     0.004184152 RMS     0.001681127
 IRC-IRC-IRC-IRC-IRC-IRC-IRC-IRC-IRC-IRC-IRC-IRC-IRC-IRC-IRC-IRC-IRC-IRC
 Pt  7 Step number   1 out of a maximum of  20
 Modified Bulirsch-Stoer Extrapolation Cycles:
    EPS =    0.000010000000000
 Maximum DWI energy   std dev =  0.000013926 at pt    47
 Maximum DWI gradient std dev =  0.114805864 at pt    39
 CORRECTOR INTEGRATION CONVERGENCE:
   Recorrection delta-x convergence threshold:    0.010000
   Delta-x Convergence NOT Met
 IRC-IRC-IRC-IRC-IRC-IRC-IRC-IRC-IRC-IRC-IRC-IRC-IRC-IRC-IRC-IRC-IRC-IRC
                          Input orientation:                          
 ---------------------------------------------------------------------
 Center     Atomic      Atomic             Coordinates (Angstroms)
 Number     Number       Type             X           Y           Z
 ---------------------------------------------------------------------
      1          6           0        1.439728   -0.722845    0.119372
      2          6           0        0.338775   -1.436371   -0.244239
      3          6           0       -0.963954   -0.778757   -0.315941
      4          6           0       -0.963943    0.778771   -0.315940
      5          6           0        0.338796    1.436367   -0.244238
      6          6           0        1.439739    0.722823    0.119372
      7          1           0        2.399059   -1.232340    0.247126
      8          1           0        0.414946   -2.492825   -0.513815
      9          1           0        0.414983    2.492819   -0.513814
     10          1           0        2.399077    1.232304    0.247125
     11          8           0       -1.351039    0.000009    0.797310
     12          1           0       -1.793001    1.304296   -0.808575
     13          1           0       -1.793020   -1.304268   -0.808577
 ---------------------------------------------------------------------
                    Distance matrix (angstroms):
                    1          2          3          4          5
     1  C    0.000000
     2  C    1.361408   0.000000
     3  C    2.443422   1.461062   0.000000
     4  C    2.867400   2.570812   1.557528   0.000000
     5  C    2.450807   2.872738   2.570812   1.461062   0.000000
     6  C    1.445668   2.450807   2.867400   2.443422   1.361408
     7  H    1.093719   2.127871   3.439860   3.958711   3.407068
     8  H    2.141012   1.092962   2.208744   3.555817   3.939164
     9  H    3.433878   3.939164   3.555816   2.208744   1.092962
    10  H    2.181577   3.407068   3.958711   3.439860   2.127871
    11  O    2.961503   2.450201   1.412671   1.412671   2.450201
    12  H    3.926948   3.517699   2.295455   1.098273   2.209181
    13  H    3.413181   2.209181   1.098273   2.295455   3.517698
                    6          7          8          9         10
     6  C    0.000000
     7  H    2.181577   0.000000
     8  H    3.433878   2.470740   0.000000
     9  H    2.141012   4.288635   4.985643   0.000000
    10  H    1.093719   2.464644   4.288635   2.470740   0.000000
    11  O    2.961503   3.985551   3.324451   3.324452   3.985552
    12  H    3.413181   5.012224   4.402277   2.524810   4.323564
    13  H    3.926948   4.323564   2.524810   4.402276   5.012224
                   11         12         13
    11  O    0.000000
    12  H    2.115505   0.000000
    13  H    2.115505   2.608564   0.000000
 Symmetry turned off by external request.
 Stoichiometry    C6H6O
 Framework group  C1[X(C6H6O)]
 Deg. of freedom    33
 Full point group                 C1      NOp   1
 Rotational constants (GHZ):      4.5212339      3.6426967      2.3160075
 Standard basis: SVP (5D, 7F)
   128 basis functions,   217 primitive gaussians,   135 cartesian basis functions
    25 alpha electrons       25 beta electrons
       nuclear repulsion energy       280.8059919737 Hartrees.
 NAtoms=   13 NActive=   13 NUniq=   13 SFac= 1.00D+00 NAtFMM=   60 NAOKFM=F Big=F
 Integral buffers will be    131072 words long.
 Raffenetti 2 integral format.
 Two-electron integral symmetry is turned off.
 One-electron integrals computed using PRISM.
 NBasis=   128 RedAO= T EigKep=  3.73D-04  NBF=   128
 NBsUse=   128 1.00D-06 EigRej= -1.00D+00 NBFU=   128
 Initial guess from the checkpoint file:  "/tmp/Gau-24277.chk"
 B after Tr=     0.000026    0.000000   -0.000027
         Rot=    1.000000    0.000000   -0.000004    0.000000 Ang=   0.00 deg.
 ExpMin= 1.22D-01 ExpMax= 2.27D+03 ExpMxC= 3.41D+02 IAcc=1 IRadAn=         1 AccDes= 0.00D+00
 Harris functional with IExCor=  402 and IRadAn=       1 diagonalized for initial guess.
 HarFok:  IExCor=  402 AccDes= 0.00D+00 IRadAn=         1 IDoV= 1 UseB2=F ITyADJ=14
 ICtDFT=  3500011 ScaDFX=  1.000000  1.000000  1.000000  1.000000
 FoFCou: FMM=F IPFlag=           0 FMFlag=      100000 FMFlg1=           0
         NFxFlg=           0 DoJE=T BraDBF=F KetDBF=T FulRan=T
         wScrn=  0.000000 ICntrl=     500 IOpCl=  0 I1Cent=   200000004 NGrid=           0
         NMat0=    1 NMatS0=      1 NMatT0=    0 NMatD0=    1 NMtDS0=    0 NMtDT0=    0
 Symmetry not used in FoFCou.
 Requested convergence on RMS density matrix=1.00D-08 within 128 cycles.
 Requested convergence on MAX density matrix=1.00D-06.
 Requested convergence on             energy=1.00D-06.
 No special actions if energy rises.
 Integral accuracy reduced to 1.0D-05 until final iterations.
 Initial convergence to 1.0D-05 achieved.  Increase integral accuracy.
 SCF Done:  E(RB3LYP) =  -307.171728592     A.U. after    9 cycles
            NFock=  9  Conv=0.26D-08     -V/T= 2.0103
 DoSCS=F DFT=T ScalE2(SS,OS)=  1.000000  1.000000
 Range of M.O.s used for correlation:     1   128
 NBasis=   128 NAE=    25 NBE=    25 NFC=     0 NFV=     0
 NROrb=    128 NOA=    25 NOB=    25 NVA=   103 NVB=   103

 **** Warning!!: The largest alpha MO coefficient is  0.10566761D+02

 Symmetrizing basis deriv contribution to polar:
 IMax=3 JMax=2 DiffMx= 0.00D+00
 Calling FoFJK, ICntrl=      2147 FMM=F ISym2X=0 I1Cent= 0 IOpClX= 0 NMat=1 NMatS=1 NMatT=0.
 -------------------------------------------------------------------
 Center     Atomic                   Forces (Hartrees/Bohr)
 Number     Number              X              Y              Z
 -------------------------------------------------------------------
      1        6           0.001191709   -0.000603123   -0.002080518
      2        6           0.000048888    0.000927599    0.001842288
[...]
 Symmetry turned off by external request.
 Stoichiometry    C6H6O
 Framework group  C1[X(C6H6O)]
 Deg. of freedom    33
 Full point group                 C1      NOp   1
 Rotational constants (GHZ):      4.5387915      3.6253558      2.3145500
 Standard basis: SVP (5D, 7F)
   128 basis functions,   217 primitive gaussians,   135 cartesian basis functions
    25 alpha electrons       25 beta electrons
       nuclear repulsion energy       280.7735009883 Hartrees.
 NAtoms=   13 NActive=   13 NUniq=   13 SFac= 1.00D+00 NAtFMM=   60 NAOKFM=F Big=F
 Integral buffers will be    131072 words long.
 Raffenetti 2 integral format.
 Two-electron integral symmetry is turned off.
 One-electron integrals computed using PRISM.
 NBasis=   128 RedAO= T EigKep=  3.55D-04  NBF=   128
 NBsUse=   128 1.00D-06 EigRej= -1.00D+00 NBFU=   128
 Initial guess from the checkpoint file:  "/tmp/Gau-24277.chk"
 B after Tr=     0.000354    0.000000   -0.000860
         Rot=    1.000000    0.000000   -0.000207    0.000000 Ang=   0.02 deg.
 ExpMin= 1.22D-01 ExpMax= 2.27D+03 ExpMxC= 3.41D+02 IAcc=1 IRadAn=         1 AccDes= 0.00D+00
 Harris functional with IExCor=  402 and IRadAn=       1 diagonalized for initial guess.
 HarFok:  IExCor=  402 AccDes= 0.00D+00 IRadAn=         1 IDoV= 1 UseB2=F ITyADJ=14
 ICtDFT=  3500011 ScaDFX=  1.000000  1.000000  1.000000  1.000000
 FoFCou: FMM=F IPFlag=           0 FMFlag=      100000 FMFlg1=           0
         NFxFlg=           0 DoJE=T BraDBF=F KetDBF=T FulRan=T
         wScrn=  0.000000 ICntrl=     500 IOpCl=  0 I1Cent=   200000004 NGrid=           0
         NMat0=    1 NMatS0=      1 NMatT0=    0 NMatD0=    1 NMtDS0=    0 NMtDT0=    0
 Symmetry not used in FoFCou.
 Requested convergence on RMS density matrix=1.00D-08 within 128 cycles.
 Requested convergence on MAX density matrix=1.00D-06.
 Requested convergence on             energy=1.00D-06.
 No special actions if energy rises.
 Integral accuracy reduced to 1.0D-05 until final iterations.
 Initial convergence to 1.0D-05 achieved.  Increase integral accuracy.
 SCF Done:  E(RB3LYP) =  -307.172298086     A.U. after   11 cycles
            NFock= 11  Conv=0.66D-08     -V/T= 2.0102
 DoSCS=F DFT=T ScalE2(SS,OS)=  1.000000  1.000000
 Range of M.O.s used for correlation:     1   128
 NBasis=   128 NAE=    25 NBE=    25 NFC=     0 NFV=     0
 NROrb=    128 NOA=    25 NOB=    25 NVA=   103 NVB=   103

 **** Warning!!: The largest alpha MO coefficient is  0.10893739D+02

 Symmetrizing basis deriv contribution to polar:
 IMax=3 JMax=2 DiffMx= 0.00D+00
 Calling FoFJK, ICntrl=      2147 FMM=F ISym2X=0 I1Cent= 0 IOpClX= 0 NMat=1 NMatS=1 NMatT=0.
 -------------------------------------------------------------------
 Center     Atomic                   Forces (Hartrees/Bohr)
 Number     Number              X              Y              Z
 -------------------------------------------------------------------
      1        6           0.001444428    0.000105342   -0.001629876
      2        6          -0.000538846    0.000939620    0.001620688
      3        6           0.000383946   -0.000952312   -0.000767792
      4        6           0.000383965    0.000952331   -0.000767833
      5        6          -0.000538970   -0.000939720    0.001620675
      6        6           0.001444486   -0.000105418   -0.001629828
      7        1           0.000061874   -0.000074548   -0.000029389
      8        1          -0.000238813   -0.000698328    0.000640121
      9        1          -0.000238803    0.000698466    0.000640115
     10        1           0.000061881    0.000074555   -0.000029381
     11        8          -0.002776713    0.000000042    0.000681717
     12        1           0.000275796   -0.000392639   -0.000174605
     13        1           0.000275769    0.000392608   -0.000174612
 -------------------------------------------------------------------
 Cartesian Forces:  Max     0.002776713 RMS     0.000891866
 IRC-IRC-IRC-IRC-IRC-IRC-IRC-IRC-IRC-IRC-IRC-IRC-IRC-IRC-IRC-IRC-IRC-IRC
 Error in corrector energy =          -0.0000728936
 Magnitude of corrector gradient =     0.0069788269
 Magnitude of analytic gradient =      0.0055697009
 Magnitude of difference =             0.0059703436
 Angle between gradients (degrees)=   55.4569
 Pt  8 Step number  18 out of a maximum of  20
 Modified Bulirsch-Stoer Extrapolation Cycles:
    EPS =    0.000010000000000
 Maximum DWI energy   std dev =  0.000017423 at pt    -1
 Maximum DWI gradient std dev =  0.244615488 at pt    61
 CORRECTOR INTEGRATION CONVERGENCE:
   Recorrection delta-x convergence threshold:    0.010000
   Delta-x Convergence NOT Met
 IRC-IRC-IRC-IRC-IRC-IRC-IRC-IRC-IRC-IRC-IRC-IRC-IRC-IRC-IRC-IRC-IRC-IRC
                          Input orientation:                          
 ---------------------------------------------------------------------
 Center     Atomic      Atomic             Coordinates (Angstroms)
 Number     Number       Type             X           Y           Z
 ---------------------------------------------------------------------
      1          6           0        1.444612   -0.723998    0.111361
      2          6           0        0.338536   -1.435346   -0.236152
      3          6           0       -0.962483   -0.771654   -0.320574
      4          6           0       -0.962472    0.771669   -0.320573
      5          6           0        0.338557    1.435341   -0.236151
      6          6           0        1.444623    0.723976    0.111361
      7          1           0        2.400050   -1.238035    0.250146
      8          1           0        0.399179   -2.506814   -0.454678
      9          1           0        0.399215    2.506809   -0.454676
     10          1           0        2.400068    1.238000    0.250146
     11          8           0       -1.359688    0.000009    0.800594
     12          1           0       -1.787497    1.291031   -0.824334
     13          1           0       -1.787516   -1.291004   -0.824335
 ---------------------------------------------------------------------
                    Distance matrix (angstroms):
                    1          2          3          4          5
     1  C    0.000000
     2  C    1.360216   0.000000
     3  C    2.446006   1.462964   0.000000
     4  C    2.866642   2.563330   1.543323   0.000000
     5  C    2.450891   2.870687   2.563330   1.462964   0.000000
     6  C    1.447974   2.450891   2.866642   2.446006   1.360216
     7  H    1.093781   2.127265   3.442362   3.958684   3.410745
     8  H    2.142840   1.095205   2.209725   3.552538   3.948672
     9  H    3.442581   3.948673   3.552538   2.209725   1.095205
    10  H    2.186685   3.410745   3.958684   3.442363   2.127265
    11  O    2.977134   2.453375   1.417834   1.417834   2.453376
    12  H    3.922039   3.507007   2.277958   1.097351   2.210631
    13  H    3.412283   2.210631   1.097351   2.277958   3.507007
                    6          7          8          9         10
     6  C    0.000000
     7  H    2.186685   0.000000
     8  H    3.442580   2.471854   0.000000
     9  H    2.142840   4.303948   5.013622   0.000000
    10  H    1.093781   2.476035   4.303947   2.471854   0.000000
    11  O    2.977134   3.996420   3.309604   3.309605   3.996421
    12  H    3.412283   5.008615   4.397933   2.529125   4.323543
    13  H    3.922039   4.323543   2.529125   4.397933   5.008615
                   11         12         13
    11  O    0.000000
    12  H    2.118997   0.000000
    13  H    2.118997   2.582034   0.000000
 Symmetry turned off by external request.
 Stoichiometry    C6H6O
 Framework group  C1[X(C6H6O)]
 Deg. of freedom    33
 Full point group                 C1      NOp   1
 Rotational constants (GHZ):      4.5313538      3.6285286      2.3117552
 Standard basis: SVP (5D, 7F)
   128 basis functions,   217 primitive gaussians,   135 cartesian basis functions
    25 alpha electrons       25 beta electrons
       nuclear repulsion energy       280.6730181984 Hartrees.
 NAtoms=   13 NActive=   13 NUniq=   13 SFac= 1.00D+00 NAtFMM=   60 NAOKFM=F Big=F
 Integral buffers will be    131072 words long.
 Raffenetti 2 integral format.
 Two-electron integral symmetry is turned off.
 One-electron integrals computed using PRISM.
 NBasis=   128 RedAO= T EigKep=  3.61D-04  NBF=   128
 NBsUse=   128 1.00D-06 EigRej= -1.00D+00 NBFU=   128
 Initial guess from the checkpoint file:  "/tmp/Gau-24277.chk"
 B after Tr=    -0.000354    0.000000    0.000859
         Rot=    1.000000    0.000000    0.000207    0.000000 Ang=  -0.02 deg.
 ExpMin= 1.22D-01 ExpMax= 2.27D+03 ExpMxC= 3.41D+02 IAcc=1 IRadAn=         1 AccDes= 0.00D+00
 Harris functional with IExCor=  402 and IRadAn=       1 diagonalized for initial guess.
 HarFok:  IExCor=  402 AccDes= 0.00D+00 IRadAn=         1 IDoV= 1 UseB2=F ITyADJ=14
 ICtDFT=  3500011 ScaDFX=  1.000000  1.000000  1.000000  1.000000
 FoFCou: FMM=F IPFlag=           0 FMFlag=      100000 FMFlg1=           0
         NFxFlg=           0 DoJE=T BraDBF=F KetDBF=T FulRan=T
         wScrn=  0.000000 ICntrl=     500 IOpCl=  0 I1Cent=   200000004 NGrid=           0
         NMat0=    1 NMatS0=      1 NMatT0=    0 NMatD0=    1 NMtDS0=    0 NMtDT0=    0
 Symmetry not used in FoFCou.
 Requested convergence on RMS density matrix=1.00D-08 within 128 cycles.
 Requested convergence on MAX density matrix=1.00D-06.
 Requested convergence on             energy=1.00D-06.
 No special actions if energy rises.
 Integral accuracy reduced to 1.0D-05 until final iterations.
 Initial convergence to 1.0D-05 achieved.  Increase integral accuracy.
 SCF Done:  E(RB3LYP) =  -307.172252935     A.U. after   11 cycles
            NFock= 11  Conv=0.53D-08     -V/T= 2.0103
 DoSCS=F DFT=T ScalE2(SS,OS)=  1.000000  1.000000
 Range of M.O.s used for correlation:     1   128
 NBasis=   128 NAE=    25 NBE=    25 NFC=     0 NFV=     0
 NROrb=    128 NOA=    25 NOB=    25 NVA=   103 NVB=   103

 **** Warning!!: The largest alpha MO coefficient is  0.10608031D+02

 Symmetrizing basis deriv contribution to polar:
 IMax=3 JMax=2 DiffMx= 0.00D+00
 Calling FoFJK, ICntrl=      2147 FMM=F ISym2X=0 I1Cent= 0 IOpClX= 0 NMat=1 NMatS=1 NMatT=0.
 -------------------------------------------------------------------
 Center     Atomic                   Forces (Hartrees/Bohr)
 Number     Number              X              Y              Z
 -------------------------------------------------------------------
      1        6           0.000467121   -0.000752107   -0.001995286
      2        6           0.001025153   -0.001516165    0.002540113
      3        6           0.000210019    0.004950799   -0.001151325
      4        6           0.000209930   -0.004950873   -0.001151377
      5        6           0.001025325    0.001516330    0.002540155
      6        6           0.000467013    0.000752182   -0.001995238
      7        1          -0.000019294    0.000062372   -0.000029310
      8        1           0.000100329    0.001358211    0.000295611
      9        1           0.000100300   -0.001358450    0.000295634
     10        1          -0.000019309   -0.000062384   -0.000029312
     11        8          -0.003108952    0.000000050    0.000627577
     12        1          -0.000228838    0.000543216    0.000026371
     13        1          -0.000228799   -0.000543182    0.000026388
 -------------------------------------------------------------------
 Cartesian Forces:  Max     0.004950873 RMS     0.001565220
 IRC-IRC-IRC-IRC-IRC-IRC-IRC-IRC-IRC-IRC-IRC-IRC-IRC-IRC-IRC-IRC-IRC-IRC
 Error in corrector energy =          -0.0001353120
 Magnitude of corrector gradient =     0.0058922020
 Magnitude of analytic gradient =      0.0097747941
 Magnitude of difference =             0.0088652796
 Angle between gradients (degrees)=   63.3477
 Pt  8 Step number  19 out of a maximum of  20
 Modified Bulirsch-Stoer Extrapolation Cycles:
    EPS =    0.000010000000000
 Maximum DWI energy   std dev =  0.000011970 at pt    33
 Maximum DWI gradient std dev =  0.424873428 at pt    30
 CORRECTOR INTEGRATION CONVERGENCE:
   Recorrection delta-x convergence threshold:    0.010000
   Delta-x Convergence NOT Met
 IRC-IRC-IRC-IRC-IRC-IRC-IRC-IRC-IRC-IRC-IRC-IRC-IRC-IRC-IRC-IRC-IRC-IRC
                          Input orientation:                          
 ---------------------------------------------------------------------
 Center     Atomic      Atomic             Coordinates (Angstroms)
 Number     Number       Type             X           Y           Z
 ---------------------------------------------------------------------
      1          6           0        1.444031   -0.724637    0.111453
      2          6           0        0.339508   -1.434962   -0.236051
      3          6           0       -0.962452   -0.765439   -0.322779
      4          6           0       -0.962441    0.765453   -0.322778
      5          6           0        0.339529    1.434957   -0.236050
      6          6           0        1.444042    0.724615    0.111453
      7          1           0        2.400647   -1.236854    0.247713
      8          1           0        0.403117   -2.500329   -0.468207
      9          1           0        0.403154    2.500323   -0.468206
     10          1           0        2.400666    1.236819    0.247712
     11          8           0       -1.360358    0.000010    0.803303
     12          1           0       -1.787415    1.294978   -0.818711
     13          1           0       -1.787434   -1.294951   -0.818713
 ---------------------------------------------------------------------
                    Distance matrix (angstroms):
                    1          2          3          4          5
     1  C    0.000000
     2  C    1.358415   0.000000
     3  C    2.445687   1.466589   0.000000
     4  C    2.863570   2.558206   1.530892   0.000000
     5  C    2.450414   2.869919   2.558206   1.466590   0.000000
     6  C    1.449252   2.450414   2.863570   2.445687   1.358415
     7  H    1.093639   2.126398   3.443564   3.955383   3.408931
     8  H    2.138362   1.092223   2.212640   3.542772   3.942641
     9  H    3.437993   3.942641   3.542772   2.212640   1.092222
    10  H    2.186555   3.408931   3.955383   3.443564   2.126398
    11  O    2.977981   2.455391   1.418556   1.418556   2.455391
    12  H    3.922537   3.509397   2.274166   1.098603   2.209747
    13  H    3.410694   2.209747   1.098603   2.274166   3.509397
                    6          7          8          9         10
     6  C    0.000000
     7  H    2.186555   0.000000
     8  H    3.437993   2.469623   0.000000
     9  H    2.138362   4.297559   5.000652   0.000000
    10  H    1.093639   2.473673   4.297559   2.469622   0.000000
    11  O    2.977981   3.997959   3.313348   3.313349   3.997959
    12  H    3.410694   5.008722   4.396094   2.524739   4.322113
    13  H    3.922537   4.322113   2.524739   4.396093   5.008722
                   11         12         13
    11  O    0.000000
    12  H    2.119022   0.000000
    13  H    2.119022   2.589929   0.000000
 Symmetry turned off by external request.
 Stoichiometry    C6H6O
 Framework group  C1[X(C6H6O)]
 Deg. of freedom    33
 Full point group                 C1      NOp   1
 Rotational constants (GHZ):      4.5387915      3.6253558      2.3145500
 Standard basis: SVP (5D, 7F)
   128 basis functions,   217 primitive gaussians,   135 cartesian basis functions
    25 alpha electrons       25 beta electrons
       nuclear repulsion energy       280.7735009885 Hartrees.
 NAtoms=   13 NActive=   13 NUniq=   13 SFac= 1.00D+00 NAtFMM=   60 NAOKFM=F Big=F
 Integral buffers will be    131072 words long.
 Raffenetti 2 integral format.
 Two-electron integral symmetry is turned off.
 One-electron integrals computed using PRISM.
 NBasis=   128 RedAO= T EigKep=  3.55D-04  NBF=   128
 NBsUse=   128 1.00D-06 EigRej= -1.00D+00 NBFU=   128
 Initial guess from the checkpoint file:  "/tmp/Gau-24277.chk"
 B after Tr=     0.000354    0.000000   -0.000860
         Rot=    1.000000    0.000000   -0.000207    0.000000 Ang=   0.02 deg.
 ExpMin= 1.22D-01 ExpMax= 2.27D+03 ExpMxC= 3.41D+02 IAcc=1 IRadAn=         1 AccDes= 0.00D+00
 Harris functional with IExCor=  402 and IRadAn=       1 diagonalized for initial guess.
 HarFok:  IExCor=  402 AccDes= 0.00D+00 IRadAn=         1 IDoV= 1 UseB2=F ITyADJ=14
 ICtDFT=  3500011 ScaDFX=  1.000000  1.000000  1.000000  1.000000
 FoFCou: FMM=F IPFlag=           0 FMFlag=      100000 FMFlg1=           0
         NFxFlg=           0 DoJE=T BraDBF=F KetDBF=T FulRan=T
         wScrn=  0.000000 ICntrl=     500 IOpCl=  0 I1Cent=   200000004 NGrid=           0
         NMat0=    1 NMatS0=      1 NMatT0=    0 NMatD0=    1 NMtDS0=    0 NMtDT0=    0
 Symmetry not used in FoFCou.
 Requested convergence on RMS density matrix=1.00D-08 within 128 cycles.
 Requested convergence on MAX density matrix=1.00D-06.
 Requested convergence on             energy=1.00D-06.
 No special actions if energy rises.
 Integral accuracy reduced to 1.0D-05 until final iterations.
 Initial convergence to 1.0D-05 achieved.  Increase integral accuracy.
 SCF Done:  E(RB3LYP) =  -307.172298086     A.U. after   11 cycles
            NFock= 11  Conv=0.66D-08     -V/T= 2.0102
 DoSCS=F DFT=T ScalE2(SS,OS)=  1.000000  1.000000
 Range of M.O.s used for correlation:     1   128
 NBasis=   128 NAE=    25 NBE=    25 NFC=     0 NFV=     0
 NROrb=    128 NOA=    25 NOB=    25 NVA=   103 NVB=   103

 **** Warning!!: The largest alpha MO coefficient is  0.10893739D+02

 Symmetrizing basis deriv contribution to polar:
 IMax=3 JMax=2 DiffMx= 0.00D+00
 Calling FoFJK, ICntrl=      2147 FMM=F ISym2X=0 I1Cent= 0 IOpClX= 0 NMat=1 NMatS=1 NMatT=0.
 -------------------------------------------------------------------
 Center     Atomic                   Forces (Hartrees/Bohr)
 Number     Number              X              Y              Z
 -------------------------------------------------------------------
      1        6           0.001444428    0.000105342   -0.001629876
      2        6          -0.000538846    0.000939620    0.001620688
      3        6           0.000383946   -0.000952312   -0.000767792
      4        6           0.000383965    0.000952331   -0.000767833
      5        6          -0.000538970   -0.000939720    0.001620675
      6        6           0.001444486   -0.000105418   -0.001629828
      7        1           0.000061874   -0.000074548   -0.000029389
      8        1          -0.000238813   -0.000698328    0.000640121
      9        1          -0.000238803    0.000698466    0.000640115
     10        1           0.000061881    0.000074555   -0.000029381
     11        8          -0.002776713    0.000000042    0.000681717
     12        1           0.000275796   -0.000392639   -0.000174605
     13        1           0.000275769    0.000392609   -0.000174612
 -------------------------------------------------------------------
 Cartesian Forces:  Max     0.002776713 RMS     0.000891866
 IRC-IRC-IRC-IRC-IRC-IRC-IRC-IRC-IRC-IRC-IRC-IRC-IRC-IRC-IRC-IRC-IRC-IRC
 Error in corrector energy =          -0.0000728936
 Magnitude of corrector gradient =     0.0069788269
 Magnitude of analytic gradient =      0.0055697009
 Magnitude of difference =             0.0059703437
 Angle between gradients (degrees)=   55.4569
 Pt  8 Step number  20 out of a maximum of  20
 Modified Bulirsch-Stoer Extrapolation Cycles:
    EPS =    0.000010000000000
 Maximum DWI energy   std dev =  0.000017423 at pt    -1
 Maximum DWI gradient std dev =  0.244615491 at pt    61
 CORRECTOR INTEGRATION CONVERGENCE:
   Recorrection delta-x convergence threshold:    0.010000
   Delta-x Convergence NOT Met
 Maximum number of corrector steps exceded.
 Error termination via Lnk1e in /home/eliot/software/g09E01/l123.exe at Tue Oct  2 17:03:57 2018.
 Job cpu time:       0 days  0 hours 21 minutes 42.7 seconds.
 File lengths (MBytes):  RWF=     30 Int=      0 D2E=      0 Chk=      4 Scr=      1
