 Entering Gaussian System, Link 0=/home/eliot/software/g09E01/g09
 Initial command:
 /home/eliot/software/g09E01/l1.exe "/tmp/Gau-8318.inp" -scrdir="/tmp/"
 Entering Link 1 = /home/eliot/software/g09E01/l1.exe PID=      8320.
  
 Copyright (c) 1988,1990,1992,1993,1995,1998,2003,2009,2015,
            Gaussian, Inc.  All Rights Reserved.
  
 This is part of the Gaussian(R) 09 program.  It is based on
 the Gaussian(R) 03 system (copyright 2003, Gaussian, Inc.),
 the Gaussian(R) 98 system (copyright 1998, Gaussian, Inc.),
 the Gaussian(R) 94 system (copyright 1995, Gaussian, Inc.),
 the Gaussian 92(TM) system (copyright 1992, Gaussian, Inc.),
 the Gaussian 90(TM) system (copyright 1990, Gaussian, Inc.),
 the Gaussian 88(TM) system (copyright 1988, Gaussian, Inc.),
 the Gaussian 86(TM) system (copyright 1986, Carnegie Mellon
 University), and the Gaussian 82(TM) system (copyright 1983,
 Carnegie Mellon University). Gaussian is a federally registered
 trademark of Gaussian, Inc.
  
 This software contains proprietary and confidential information,
 including trade secrets, belonging to Gaussian, Inc.
  
 This software is provided under written license and may be
 used, copied, transmitted, or stored only in accord with that
 written license.
  
 The following legend is applicable only to US Government
 contracts under FAR:
  
                    RESTRICTED RIGHTS LEGEND
  
 Use, reproduction and disclosure by the US Government is
 subject to restrictions as set forth in subparagraphs (a)
 and (c) of the Commercial Computer Software - Restricted
 Rights clause in FAR 52.227-19.
  
 Gaussian, Inc.
 340 Quinnipiac St., Bldg. 40, Wallingford CT 06492
  
  
 ---------------------------------------------------------------
 Warning -- This program may not be used in any manner that
 competes with the business of Gaussian, Inc. or will provide
 assistance to any competitor of Gaussian, Inc.  The licensee
 of this program is prohibited from giving any competitor of
 Gaussian, Inc. access to this program.  By using this program,
 the user acknowledges that Gaussian, Inc. is engaged in the
 business of creating and licensing software in the field of
 computational chemistry and represents and warrants to the
 licensee that it is not a competitor of Gaussian, Inc. and that
 it will not use this program in any manner prohibited above.
 ---------------------------------------------------------------
  

 Cite this work as:
 Gaussian 09, Revision E.01,
 M. J. Frisch, G. W. Trucks, H. B. Schlegel, G. E. Scuseria, 
 M. A. Robb, J. R. Cheeseman, G. Scalmani, V. Barone, B. Mennucci, 
 G. A. Petersson, H. Nakatsuji, M. Caricato, X. Li, H. P. Hratchian, 
 A. F. Izmaylov, J. Bloino, G. Zheng, J. L. Sonnenberg, M. Hada, 
 M. Ehara, K. Toyota, R. Fukuda, J. Hasegawa, M. Ishida, T. Nakajima, 
 Y. Honda, O. Kitao, H. Nakai, T. Vreven, J. A. Montgomery, Jr., 
 J. E. Peralta, F. Ogliaro, M. Bearpark, J. J. Heyd, E. Brothers, 
 K. N. Kudin, V. N. Staroverov, T. Keith, R. Kobayashi, J. Normand, 
 K. Raghavachari, A. Rendell, J. C. Burant, S. S. Iyengar, J. Tomasi, 
 M. Cossi, N. Rega, J. M. Millam, M. Klene, J. E. Knox, J. B. Cross, 
 V. Bakken, C. Adamo, J. Jaramillo, R. Gomperts, R. E. Stratmann, 
 O. Yazyev, A. J. Austin, R. Cammi, C. Pomelli, J. W. Ochterski, 
 R. L. Martin, K. Morokuma, V. G. Zakrzewski, G. A. Voth, 
 P. Salvador, J. J. Dannenberg, S. Dapprich, A. D. Daniels, 
 O. Farkas, J. B. Foresman, J. V. Ortiz, J. Cioslowski, 
 and D. J. Fox, Gaussian, Inc., Wallingford CT, 2013.
 
 ******************************************
 Gaussian 09:  ES64L-G09RevE.01 30-Nov-2015
                 5-Oct-2018 
 ******************************************
 %nproc=2
 Will use up to    2 processors via shared memory.
 ----------------
 # freq hf/sto-3g
 ----------------
 1/10=4,30=1,38=1/1,3;
 2/12=2,17=6,18=5,40=1/2;
 3/6=3,11=9,16=1,25=1,30=1,71=2,140=1/1,2,3;
 4//1;
 5/5=2,38=5,98=1/2;
 8/6=4,10=90,11=11/1;
 10/13=10,15=4/2;
 11/6=3,8=1,9=11,15=111,16=1/1,2,10;
 10/6=1/2;
 6/7=2,8=2,9=2,10=2,18=1,28=1/1;
 7/8=1,10=1,25=1/1,2,3,16;
 1/10=4,30=1/3;
 99//99;
 -----------------
 oxepin-hf-sto.log
 -----------------
 Symbolic Z-matrix:
 Charge =  0 Multiplicity = 1
 C                     0.27564  -1.4319    0.66195 
 C                    -0.21632  -0.31576   1.50596 
 C                    -0.21632   0.95797   1.15792 
 C                    -0.21632   0.95797  -1.15792 
 C                    -0.21632  -0.31576  -1.50596 
 C                     0.27564  -1.4319   -0.66195 
 H                     0.59156  -2.32214   1.19351 
 H                    -0.64012  -0.58452   2.46542 
 H                    -0.64012  -0.58452  -2.46542 
 H                     0.59156  -2.32214  -1.19351 
 O                     0.40662   1.47953   0. 
 H                    -0.6359    1.72667  -1.80704 
 H                    -0.6359    1.72667   1.80704 
 

 GradGradGradGradGradGradGradGradGradGradGradGradGradGradGradGradGradGrad
 Berny optimization.
 Initialization pass.
 Trust Radius=3.00D-01 FncErr=1.00D-07 GrdErr=1.00D-07
 Number of steps in this run=      2 maximum allowed number of steps=      2.
 GradGradGradGradGradGradGradGradGradGradGradGradGradGradGradGradGradGrad

                          Input orientation:                          
 ---------------------------------------------------------------------
 Center     Atomic      Atomic             Coordinates (Angstroms)
 Number     Number       Type             X           Y           Z
 ---------------------------------------------------------------------
      1          6           0        0.275640   -1.431900    0.661950
      2          6           0       -0.216320   -0.315760    1.505960
      3          6           0       -0.216320    0.957970    1.157920
      4          6           0       -0.216320    0.957970   -1.157920
      5          6           0       -0.216320   -0.315760   -1.505960
      6          6           0        0.275640   -1.431900   -0.661950
      7          1           0        0.591560   -2.322140    1.193510
      8          1           0       -0.640120   -0.584520    2.465420
      9          1           0       -0.640120   -0.584520   -2.465420
     10          1           0        0.591560   -2.322140   -1.193510
     11          8           0        0.406620    1.479530    0.000000
     12          1           0       -0.635900    1.726670   -1.807040
     13          1           0       -0.635900    1.726670    1.807040
 ---------------------------------------------------------------------
                    Distance matrix (angstroms):
                    1          2          3          4          5
     1  C    0.000000
     2  C    1.483289   0.000000
     3  C    2.489877   1.320424   0.000000
     4  C    3.043917   2.952735   2.315840   0.000000
     5  C    2.487494   3.011920   2.952735   1.320424   0.000000
     6  C    1.323900   2.487494   3.043917   2.489877   1.483289
     7  H    1.083923   2.185373   3.378322   4.115946   3.459099
     8  H    2.192983   1.082775   2.066020   3.960742   4.002961
     9  H    3.367063   4.002961   3.960742   2.066020   1.082775
    10  H    2.082082   3.459099   4.115946   3.378322   2.185373
    11  O    2.988605   2.424672   1.414517   1.414517   2.424672
    12  H    4.111372   3.914529   3.091591   1.090094   2.106708
    13  H    3.481192   2.106708   1.090094   3.091591   3.914529
                    6          7          8          9         10
     6  C    0.000000
     7  H    2.082082   0.000000
     8  H    3.367063   2.480749   0.000000
     9  H    2.192983   4.233690   4.930840   0.000000
    10  H    1.083923   2.387020   4.233690   2.480749   0.000000
    11  O    2.988605   3.988905   3.381459   3.381459   3.988905
    12  H    3.481192   5.186793   4.857523   2.403140   4.275037
    13  H    4.111372   4.275037   2.403140   4.857523   5.186793
                   11         12         13
    11  O    0.000000
    12  H    2.100790   0.000000
    13  H    2.100790   3.614080   0.000000
 Stoichiometry    C6H6O
 Framework group  CS[SG(O),X(C6H6)]
 Deg. of freedom    17
 Full point group                 CS      NOp   2
 Largest Abelian subgroup         CS      NOp   2
 Largest concise Abelian subgroup CS      NOp   2
                         Standard orientation:                         
 ---------------------------------------------------------------------
 Center     Atomic      Atomic             Coordinates (Angstroms)
 Number     Number       Type             X           Y           Z
 ---------------------------------------------------------------------
      1          6           0        0.275639   -1.431900    0.661950
      2          6           0       -0.216321   -0.315760    1.505960
      3          6           0       -0.216321    0.957970    1.157920
      4          6           0       -0.216321    0.957970   -1.157920
      5          6           0       -0.216321   -0.315760   -1.505960
      6          6           0        0.275639   -1.431900   -0.661950
      7          1           0        0.591559   -2.322140    1.193510
      8          1           0       -0.640121   -0.584520    2.465420
      9          1           0       -0.640121   -0.584520   -2.465420
     10          1           0        0.591559   -2.322140   -1.193510
     11          8           0        0.406619    1.479530    0.000000
     12          1           0       -0.635901    1.726670   -1.807040
     13          1           0       -0.635901    1.726670    1.807040
 ---------------------------------------------------------------------
 Rotational constants (GHZ):      3.9668914      3.7383091      2.0589941
 Standard basis: STO-3G (5D, 7F)
 There are    22 symmetry adapted cartesian basis functions of A'  symmetry.
 There are    19 symmetry adapted cartesian basis functions of A"  symmetry.
 There are    22 symmetry adapted basis functions of A'  symmetry.
 There are    19 symmetry adapted basis functions of A"  symmetry.
    41 basis functions,   123 primitive gaussians,    41 cartesian basis functions
    25 alpha electrons       25 beta electrons
       nuclear repulsion energy       274.1710597598 Hartrees.
 NAtoms=   13 NActive=   13 NUniq=    7 SFac= 3.45D+00 NAtFMM=   60 NAOKFM=F Big=F
 Integral buffers will be    131072 words long.
 Raffenetti 1 integral format.
 Two-electron integral symmetry is turned on.
 One-electron integrals computed using PRISM.
 NBasis=    41 RedAO= T EigKep=  1.23D-01  NBF=    22    19
 NBsUse=    41 1.00D-06 EigRej= -1.00D+00 NBFU=    22    19
 ExpMin= 1.69D-01 ExpMax= 1.31D+02 ExpMxC= 1.31D+02 IAcc=1 IRadAn=         1 AccDes= 0.00D+00
 Harris functional with IExCor=  205 and IRadAn=       1 diagonalized for initial guess.
 HarFok:  IExCor=  205 AccDes= 0.00D+00 IRadAn=         1 IDoV= 1 UseB2=F ITyADJ=14
 ICtDFT=  3500011 ScaDFX=  1.000000  1.000000  1.000000  1.000000
 FoFCou: FMM=F IPFlag=           0 FMFlag=      100000 FMFlg1=           0
         NFxFlg=           0 DoJE=T BraDBF=F KetDBF=T FulRan=T
         wScrn=  0.000000 ICntrl=     500 IOpCl=  0 I1Cent=   200000004 NGrid=           0
         NMat0=    1 NMatS0=      1 NMatT0=    0 NMatD0=    1 NMtDS0=    0 NMtDT0=    0
 Petite list used in FoFCou.
 Initial guess orbital symmetries:
       Occupied  (A') (A") (A') (A") (A') (A") (A') (A') (A') (A")
                 (A') (A") (A') (A") (A') (A") (A') (A') (A") (A')
                 (A") (A') (A") (A') (A')
       Virtual   (A") (A') (A") (A') (A") (A') (A') (A") (A") (A')
                 (A") (A") (A') (A") (A') (A")
 The electronic state of the initial guess is 1-A'.
 Keep R1 ints in memory in symmetry-blocked form, NReq=1222919.
 Requested convergence on RMS density matrix=1.00D-08 within 128 cycles.
 Requested convergence on MAX density matrix=1.00D-06.
 Requested convergence on             energy=1.00D-06.
 No special actions if energy rises.
 SCF Done:  E(RHF) =  -301.665340499     A.U. after   12 cycles
            NFock= 12  Conv=0.14D-08     -V/T= 2.0086
 Range of M.O.s used for correlation:     1    41
 NBasis=    41 NAE=    25 NBE=    25 NFC=     0 NFV=     0
 NROrb=     41 NOA=    25 NOB=    25 NVA=    16 NVB=    16
          Differentiating once with respect to electric field.
                with respect to dipole field.
          Electric field/nuclear overlap derivatives assumed to be zero.
 Keep R1 ints in memory in symmetry-blocked form, NReq=1208754.
          There are     3 degrees of freedom in the 1st order CPHF.  IDoFFX=0 NUNeed=     3.
      3 vectors produced by pass  0 Test12= 1.33D-14 3.33D-08 XBig12= 1.54D+01 2.39D+00.
 AX will form     3 AO Fock derivatives at one time.
      3 vectors produced by pass  1 Test12= 1.33D-14 3.33D-08 XBig12= 1.23D+00 3.29D-01.
      3 vectors produced by pass  2 Test12= 1.33D-14 3.33D-08 XBig12= 8.18D-02 1.32D-01.
      3 vectors produced by pass  3 Test12= 1.33D-14 3.33D-08 XBig12= 6.77D-03 4.10D-02.
      3 vectors produced by pass  4 Test12= 1.33D-14 3.33D-08 XBig12= 3.13D-04 4.20D-03.
      3 vectors produced by pass  5 Test12= 1.33D-14 3.33D-08 XBig12= 5.86D-05 3.39D-03.
      3 vectors produced by pass  6 Test12= 1.33D-14 3.33D-08 XBig12= 2.74D-06 4.54D-04.
      3 vectors produced by pass  7 Test12= 1.33D-14 3.33D-08 XBig12= 3.68D-08 7.13D-05.
      3 vectors produced by pass  8 Test12= 1.33D-14 3.33D-08 XBig12= 4.51D-10 4.52D-06.
      2 vectors produced by pass  9 Test12= 1.33D-14 3.33D-08 XBig12= 7.62D-12 6.01D-07.
      1 vectors produced by pass 10 Test12= 1.33D-14 3.33D-08 XBig12= 1.10D-13 7.29D-08.
 InvSVY:  IOpt=1 It=  1 EMax= 1.78D-15
 Solved reduced A of dimension    30 with     3 vectors.
 End of Minotr F.D. properties file   721 does not exist.
 End of Minotr F.D. properties file   722 does not exist.
 End of Minotr F.D. properties file   788 does not exist.
 Symmetrizing basis deriv contribution to polar:
 IMax=3 JMax=2 DiffMx= 0.00D+00
 G2DrvN: will do    14 centers at a time, making    1 passes.
 PxScal for G2LodP:  IOpCl= 0 ISclPx=1 IMOff=     1 NMtTot=     4 NTT=     861 ScalPx= 1.90D+00
 Calling FoFCou, ICntrl=  3107 FMM=F I1Cent=   0 AccDes= 0.00D+00.
 End of G2Drv F.D. properties file   721 does not exist.
 End of G2Drv F.D. properties file   722 does not exist.
 End of G2Drv F.D. properties file   788 does not exist.
          IDoAtm=1111111111111
          Differentiating once with respect to electric field.
                with respect to dipole field.
          Differentiating once with respect to nuclear coordinates.
 Keep R1 ints in memory in symmetry-blocked form, NReq=1209054.
          There are    24 degrees of freedom in the 1st order CPHF.  IDoFFX=4 NUNeed=    24.
 Will reuse    3 saved solutions.
     21 vectors produced by pass  0 Test12= 1.67D-15 4.17D-09 XBig12= 3.43D-02 6.09D-02.
 AX will form    21 AO Fock derivatives at one time.
     21 vectors produced by pass  1 Test12= 1.67D-15 4.17D-09 XBig12= 7.18D-04 8.44D-03.
     21 vectors produced by pass  2 Test12= 1.67D-15 4.17D-09 XBig12= 2.58D-05 1.24D-03.
     21 vectors produced by pass  3 Test12= 1.67D-15 4.17D-09 XBig12= 2.26D-07 9.35D-05.
     21 vectors produced by pass  4 Test12= 1.67D-15 4.17D-09 XBig12= 1.63D-09 1.02D-05.
     21 vectors produced by pass  5 Test12= 1.67D-15 4.17D-09 XBig12= 1.07D-11 6.03D-07.
     13 vectors produced by pass  6 Test12= 1.67D-15 4.17D-09 XBig12= 3.87D-14 3.82D-08.
      1 vectors produced by pass  7 Test12= 1.67D-15 4.17D-09 XBig12= 2.08D-16 4.44D-09.
 InvSVY:  IOpt=1 It=  1 EMax= 1.94D-16
 Solved reduced A of dimension   140 with    24 vectors.
 Isotropic polarizability for W=    0.000000       35.14 Bohr**3.
 End of Minotr F.D. properties file   721 does not exist.
 End of Minotr F.D. properties file   722 does not exist.
 End of Minotr F.D. properties file   788 does not exist.

 **********************************************************************

            Population analysis using the SCF density.

 **********************************************************************

 Orbital symmetries:
       Occupied  (A') (A") (A') (A') (A") (A") (A') (A') (A') (A")
                 (A') (A") (A') (A") (A') (A") (A') (A') (A") (A')
                 (A") (A') (A') (A") (A')
       Virtual   (A") (A') (A") (A') (A") (A') (A') (A") (A") (A')
                 (A") (A') (A") (A") (A') (A")
 The electronic state is 1-A'.
 Alpha  occ. eigenvalues --  -20.29687 -11.08127 -11.08095 -11.03550 -11.03466
 Alpha  occ. eigenvalues --  -11.03217 -11.03212  -1.31852  -1.04853  -1.00464
 Alpha  occ. eigenvalues --   -0.91315  -0.81378  -0.69701  -0.67634  -0.65959
 Alpha  occ. eigenvalues --   -0.58398  -0.57140  -0.52352  -0.52186  -0.48899
 Alpha  occ. eigenvalues --   -0.43676  -0.38668  -0.37511  -0.32818  -0.24117
 Alpha virt. eigenvalues --    0.22731   0.32488   0.42611   0.52520   0.59040
 Alpha virt. eigenvalues --    0.59609   0.62419   0.69611   0.71968   0.73567
 Alpha virt. eigenvalues --    0.81509   0.90628   0.93532   1.00524   1.02121
 Alpha virt. eigenvalues --    1.12513
          Condensed to atoms (all electrons):
               1          2          3          4          5          6
     1  C    4.775782   0.406255  -0.027072  -0.002736  -0.026917   0.589339
     2  C    0.406255   4.808364   0.587176  -0.003414  -0.003375  -0.026917
     3  C   -0.027072   0.587176   4.790293  -0.032790  -0.003414  -0.002736
     4  C   -0.002736  -0.003414  -0.032790   4.790293   0.587176  -0.027072
     5  C   -0.026917  -0.003375  -0.003414   0.587176   4.808364   0.406255
     6  C    0.589339  -0.026917  -0.002736  -0.027072   0.406255   4.775782
     7  H    0.393874  -0.025749   0.001147  -0.000020   0.001435  -0.028303
     8  H   -0.023549   0.392480  -0.027302   0.000014  -0.000003   0.001037
     9  H    0.001037  -0.000003   0.000014  -0.027302   0.392480  -0.023549
    10  H   -0.028303   0.001435  -0.000020   0.001147  -0.025749   0.393874
    11  O   -0.000496  -0.019636   0.268602   0.268602  -0.019636  -0.000496
    12  H   -0.000015  -0.000024   0.001825   0.386172  -0.030892   0.001313
    13  H    0.001313  -0.030892   0.386172   0.001825  -0.000024  -0.000015
               7          8          9         10         11         12
     1  C    0.393874  -0.023549   0.001037  -0.028303  -0.000496  -0.000015
     2  C   -0.025749   0.392480  -0.000003   0.001435  -0.019636  -0.000024
     3  C    0.001147  -0.027302   0.000014  -0.000020   0.268602   0.001825
     4  C   -0.000020   0.000014  -0.027302   0.001147   0.268602   0.386172
     5  C    0.001435  -0.000003   0.392480  -0.025749  -0.019636  -0.030892
     6  C   -0.028303   0.001037  -0.023549   0.393874  -0.000496   0.001313
     7  H    0.601206  -0.002717  -0.000036  -0.005511   0.000004   0.000001
     8  H   -0.002717   0.594052   0.000001  -0.000036   0.000587   0.000003
     9  H   -0.000036   0.000001   0.594052  -0.002717   0.000587  -0.004274
    10  H   -0.005511  -0.000036  -0.002717   0.601206   0.000004  -0.000032
    11  O    0.000004   0.000587   0.000587   0.000004   7.776048  -0.019671
    12  H    0.000001   0.000003  -0.004274  -0.000032  -0.019671   0.596511
    13  H   -0.000032  -0.004274   0.000003   0.000001  -0.019671  -0.000029
              13
     1  C    0.001313
     2  C   -0.030892
     3  C    0.386172
     4  C    0.001825
     5  C   -0.000024
     6  C   -0.000015
     7  H   -0.000032
     8  H   -0.004274
     9  H    0.000003
    10  H    0.000001
    11  O   -0.019671
    12  H   -0.000029
    13  H    0.596511
 Mulliken charges:
               1
     1  C   -0.058512
     2  C   -0.085700
     3  C    0.058106
     4  C    0.058106
     5  C   -0.085700
     6  C   -0.058512
     7  H    0.064700
     8  H    0.069707
     9  H    0.069707
    10  H    0.064700
    11  O   -0.234826
    12  H    0.069113
    13  H    0.069113
 Sum of Mulliken charges =   0.00000
 Mulliken charges with hydrogens summed into heavy atoms:
               1
     1  C    0.006188
     2  C   -0.015994
     3  C    0.127219
     4  C    0.127219
     5  C   -0.015994
     6  C    0.006188
    11  O   -0.234826
 APT charges:
               1
     1  C   -0.025397
     2  C   -0.131685
     3  C    0.208518
     4  C    0.208518
     5  C   -0.131685
     6  C   -0.025397
     7  H    0.045656
     8  H    0.048511
     9  H    0.048511
    10  H    0.045656
    11  O   -0.387964
    12  H    0.048379
    13  H    0.048379
 Sum of APT charges =   0.00000
 APT charges with hydrogens summed into heavy atoms:
               1
     1  C    0.020259
     2  C   -0.083174
     3  C    0.256897
     4  C    0.256897
     5  C   -0.083174
     6  C    0.020259
    11  O   -0.387964
 Electronic spatial extent (au):  <R**2>=            609.6788
 Charge=              0.0000 electrons
 Dipole moment (field-independent basis, Debye):
    X=             -1.1474    Y=             -0.7515    Z=              0.0000  Tot=              1.3716
 Quadrupole moment (field-independent basis, Debye-Ang):
   XX=            -39.2467   YY=            -37.6354   ZZ=            -34.4908
   XY=             -2.2528   XZ=              0.0000   YZ=              0.0000
 Traceless Quadrupole moment (field-independent basis, Debye-Ang):
   XX=             -2.1224   YY=             -0.5111   ZZ=              2.6335
   XY=             -2.2528   XZ=              0.0000   YZ=              0.0000
 Octapole moment (field-independent basis, Debye-Ang**2):
  XXX=              2.0454  YYY=              2.6507  ZZZ=              0.0000  XYY=             -0.8941
  XXY=              2.6185  XXZ=              0.0000  XZZ=             -2.7266  YZZ=              3.2234
  YYZ=              0.0000  XYZ=              0.0000
 Hexadecapole moment (field-independent basis, Debye-Ang**3):
 XXXX=            -56.3223 YYYY=           -339.0661 ZZZZ=           -341.5865 XXXY=             17.1226
 XXXZ=              0.0000 YYYX=              6.5007 YYYZ=              0.0000 ZZZX=              0.0000
 ZZZY=              0.0000 XXYY=            -66.9859 XXZZ=            -68.1849 YYZZ=           -105.5725
 XXYZ=              0.0000 YYXZ=              0.0000 ZZXY=              3.5119
 N-N= 2.741710597598D+02 E-N=-1.254395085578D+03  KE= 2.990877580693D+02
 Symmetry A'   KE= 1.861224519390D+02
 Symmetry A"   KE= 1.129653061303D+02
  Exact polarizability:  11.550  -5.402  47.520   0.000   0.000  46.354
 Approx polarizability:  10.150  -3.440  46.172   0.000   0.000  40.238
 Calling FoFJK, ICntrl=    100127 FMM=F ISym2X=1 I1Cent= 0 IOpClX= 0 NMat=1 NMatS=1 NMatT=0.
 Full mass-weighted force constant matrix:
 Low frequencies ---   -1.0148   -0.0050   -0.0022    0.0017    2.4853    3.2146
 Low frequencies ---  181.8471  324.2450  410.6741
 Diagonal vibrational polarizability:
        4.1272003       1.2729378       1.4343773
 Diagonal vibrational hyperpolarizability:
      -54.2435760     -17.0139078       0.0000009
 Harmonic frequencies (cm**-1), IR intensities (KM/Mole), Raman scattering
 activities (A**4/AMU), depolarization ratios for plane and unpolarized
 incident light, reduced masses (AMU), force constants (mDyne/A),
 and normal coordinates:
                      1                      2                      3
                     A'                     A"                     A'
 Frequencies --    181.8471               324.2450               410.6741
 Red. masses --      3.9867                 3.0069                 5.0390
 Frc consts  --      0.0777                 0.1863                 0.5007
 IR Inten    --      3.2165                 0.9448                 2.2365
 Raman Activ --      2.5154                 2.0599                 2.6826
 Depolar (P) --      0.7293                 0.7500                 0.7348
 Depolar (U) --      0.8435                 0.8571                 0.8471
  Atom  AN      X      Y      Z        X      Y      Z        X      Y      Z
     1   6     0.11   0.11   0.00     0.19   0.03   0.02     0.06  -0.15  -0.01
     2   6    -0.15   0.02  -0.03     0.10  -0.02   0.03    -0.12  -0.04  -0.26
     3   6    -0.09   0.01  -0.06    -0.18  -0.05  -0.06     0.05   0.01  -0.11
     4   6    -0.09   0.01   0.06     0.18   0.05  -0.06     0.05   0.01   0.11
     5   6    -0.15   0.02   0.03    -0.10   0.02   0.03    -0.12  -0.04   0.26
     6   6     0.11   0.11   0.00    -0.19  -0.03   0.02     0.06  -0.15   0.01
     7   1     0.28   0.17   0.00     0.33   0.05  -0.02     0.10  -0.06   0.13
     8   1    -0.35  -0.04  -0.13     0.03  -0.08  -0.02    -0.38   0.02  -0.36
     9   1    -0.35  -0.04   0.13    -0.03   0.08  -0.02    -0.38   0.02   0.36
    10   1     0.28   0.17   0.00    -0.33  -0.05  -0.02     0.10  -0.06  -0.13
    11   8     0.24  -0.23   0.00     0.00   0.00   0.04     0.05   0.28   0.00
    12   1    -0.26   0.07   0.25     0.49   0.10  -0.21    -0.10  -0.12   0.05
    13   1    -0.26   0.07  -0.25    -0.49  -0.10  -0.21    -0.10  -0.12  -0.05
                      4                      5                      6
                     A"                     A'                     A"
 Frequencies --    493.0998               502.1526               709.3205
 Red. masses --      5.6385                 2.1736                 3.1648
 Frc consts  --      0.8078                 0.3229                 0.9382
 IR Inten    --      1.6562                11.4330                 0.0300
 Raman Activ --      4.1930                 3.7828                 1.1177
 Depolar (P) --      0.7500                 0.7130                 0.7500
 Depolar (U) --      0.8571                 0.8325                 0.8571
  Atom  AN      X      Y      Z        X      Y      Z        X      Y      Z
     1   6     0.10   0.21  -0.18    -0.02  -0.04   0.01     0.18   0.01   0.09
     2   6    -0.05   0.15  -0.10     0.15   0.03  -0.02    -0.14  -0.06  -0.05
     3   6    -0.03   0.21   0.19    -0.11   0.02  -0.10     0.16  -0.05   0.02
     4   6     0.03  -0.21   0.19    -0.11   0.02   0.10    -0.16   0.05   0.02
     5   6     0.05  -0.15  -0.10     0.15   0.03   0.02     0.14   0.06  -0.05
     6   6    -0.10  -0.21  -0.18    -0.02  -0.04  -0.01    -0.18  -0.01   0.09
     7   1     0.20   0.33  -0.03    -0.42  -0.18  -0.01     0.30   0.05   0.08
     8   1    -0.06  -0.11  -0.18     0.10   0.04  -0.04    -0.50  -0.06  -0.21
     9   1     0.06   0.11  -0.18     0.10   0.04   0.04     0.50   0.06  -0.21
    10   1    -0.20  -0.33  -0.03    -0.42  -0.18   0.01    -0.30  -0.05   0.08
    11   8     0.00   0.00   0.13     0.08   0.00   0.00     0.00   0.00  -0.06
    12   1    -0.03  -0.22   0.21    -0.42  -0.04   0.23    -0.05   0.07  -0.04
    13   1     0.03   0.22   0.21    -0.42  -0.04  -0.23     0.05  -0.07  -0.04
                      7                      8                      9
                     A'                     A'                     A"
 Frequencies --    854.9440               899.7869               908.9090
 Red. masses --      2.2123                 1.7393                 1.4506
 Frc consts  --      0.9527                 0.8297                 0.7061
 IR Inten    --     12.1251                11.1686                 5.9494
 Raman Activ --      1.5706                 6.8960                 7.9637
 Depolar (P) --      0.6871                 0.7430                 0.7500
 Depolar (U) --      0.8146                 0.8525                 0.8571
  Atom  AN      X      Y      Z        X      Y      Z        X      Y      Z
     1   6     0.00   0.09   0.00    -0.09  -0.01   0.00    -0.04  -0.05  -0.01
     2   6    -0.01  -0.06   0.13     0.01  -0.02   0.06     0.08   0.03   0.00
     3   6     0.08  -0.09   0.02    -0.02  -0.05  -0.09     0.06   0.04   0.05
     4   6     0.08  -0.09  -0.02    -0.02  -0.05   0.09    -0.06  -0.04   0.05
     5   6    -0.01  -0.06  -0.13     0.01  -0.02  -0.06    -0.08  -0.03   0.00
     6   6     0.00   0.09   0.00    -0.09  -0.01   0.00     0.04   0.05  -0.01
     7   1    -0.21  -0.08  -0.15     0.57   0.20  -0.04    -0.13  -0.10  -0.06
     8   1    -0.43  -0.12  -0.07     0.20   0.13   0.18    -0.39  -0.01  -0.21
     9   1    -0.43  -0.12   0.07     0.20   0.13  -0.18     0.39   0.01  -0.21
    10   1    -0.21  -0.08   0.15     0.57   0.20   0.04     0.13   0.10  -0.06
    11   8     0.02   0.13   0.00     0.06   0.09   0.00     0.00   0.00   0.00
    12   1    -0.35  -0.15   0.18    -0.04  -0.07   0.09     0.46   0.03  -0.20
    13   1    -0.35  -0.15  -0.18    -0.04  -0.07  -0.09    -0.46  -0.03  -0.20
                     10                     11                     12
                     A'                     A"                     A'
 Frequencies --    972.0414              1028.1048              1051.7295
 Red. masses --      2.5273                 4.7299                 3.2640
 Frc consts  --      1.4069                 2.9456                 2.1272
 IR Inten    --      1.5319                 1.6380                 1.6779
 Raman Activ --      5.9786                 1.3513                19.9966
 Depolar (P) --      0.2795                 0.7500                 0.1823
 Depolar (U) --      0.4369                 0.8571                 0.3084
  Atom  AN      X      Y      Z        X      Y      Z        X      Y      Z
     1   6     0.01   0.17  -0.03    -0.04   0.18  -0.16     0.11  -0.08   0.04
     2   6    -0.03  -0.07  -0.10    -0.08  -0.03   0.28    -0.12  -0.03   0.13
     3   6    -0.01  -0.11  -0.11     0.06  -0.08  -0.02    -0.12   0.03   0.05
     4   6    -0.01  -0.11   0.11    -0.06   0.08  -0.02    -0.12   0.03  -0.05
     5   6    -0.03  -0.07   0.10     0.08   0.03   0.28    -0.12  -0.03  -0.13
     6   6     0.01   0.17   0.03     0.04  -0.18  -0.16     0.11  -0.08  -0.04
     7   1    -0.36   0.01  -0.10     0.01   0.18  -0.19    -0.25  -0.23   0.02
     8   1     0.38  -0.06   0.07    -0.12  -0.18   0.24     0.30  -0.04   0.33
     9   1     0.38  -0.06  -0.07     0.12   0.18   0.24     0.30  -0.04  -0.33
    10   1    -0.36   0.01   0.10    -0.01  -0.18  -0.19    -0.25  -0.23  -0.02
    11   8     0.01   0.02   0.00     0.00   0.00  -0.12     0.17   0.15   0.00
    12   1     0.33  -0.13  -0.12     0.19  -0.07  -0.35     0.21   0.10  -0.19
    13   1     0.33  -0.13   0.12    -0.19   0.07  -0.35     0.21   0.10   0.19
                     13                     14                     15
                     A"                     A'                     A"
 Frequencies --   1116.1839              1118.4430              1164.9791
 Red. masses --      2.3968                 2.2838                 1.3394
 Frc consts  --      1.7593                 1.6832                 1.0710
 IR Inten    --      3.1035                 2.1930                 1.5445
 Raman Activ --      1.2895                 1.4398                 1.8759
 Depolar (P) --      0.7500                 0.0287                 0.7500
 Depolar (U) --      0.8571                 0.0559                 0.8571
  Atom  AN      X      Y      Z        X      Y      Z        X      Y      Z
     1   6    -0.07   0.16   0.05    -0.07   0.04  -0.03     0.01  -0.03   0.01
     2   6     0.06  -0.02  -0.09     0.03  -0.06  -0.09    -0.08  -0.01  -0.04
     3   6     0.06  -0.10  -0.04    -0.04   0.03   0.17     0.05   0.02   0.05
     4   6    -0.06   0.10  -0.04    -0.04   0.03  -0.17    -0.05  -0.02   0.05
     5   6    -0.06   0.02  -0.09     0.03  -0.06   0.09     0.08   0.01  -0.04
     6   6     0.07  -0.16   0.05    -0.07   0.04   0.03    -0.01   0.03   0.01
     7   1    -0.22   0.32   0.38     0.12   0.13  -0.02     0.02  -0.03  -0.01
     8   1     0.11  -0.09  -0.10     0.25  -0.42  -0.09     0.48   0.04   0.21
     9   1    -0.11   0.09  -0.10     0.25  -0.42   0.09    -0.48  -0.04   0.21
    10   1     0.22  -0.32   0.38     0.12   0.13   0.02    -0.02   0.03  -0.01
    11   8     0.00   0.00   0.08     0.10   0.04   0.00     0.00   0.00  -0.03
    12   1     0.18   0.27   0.00    -0.33  -0.14  -0.19     0.42   0.03  -0.19
    13   1    -0.18  -0.27   0.00    -0.33  -0.14   0.19    -0.42  -0.03  -0.19
                     16                     17                     18
                     A'                     A"                     A"
 Frequencies --   1169.7295              1210.4388              1298.7808
 Red. masses --      1.4008                 1.2596                 1.9740
 Frc consts  --      1.1293                 1.0873                 1.9619
 IR Inten    --      0.1923                 0.1095                21.0896
 Raman Activ --      1.3746                 1.2006                 0.7320
 Depolar (P) --      0.6421                 0.7500                 0.7500
 Depolar (U) --      0.7821                 0.8571                 0.8571
  Atom  AN      X      Y      Z        X      Y      Z        X      Y      Z
     1   6     0.02  -0.01   0.01    -0.10  -0.03   0.00     0.03   0.01  -0.04
     2   6    -0.08   0.01  -0.02     0.01   0.01   0.00    -0.03   0.07   0.01
     3   6     0.09   0.01   0.02     0.01  -0.01   0.00     0.07  -0.02  -0.09
     4   6     0.09   0.01  -0.02    -0.01   0.01   0.00    -0.07   0.02  -0.09
     5   6    -0.08   0.01   0.02    -0.01  -0.01   0.00     0.03  -0.07   0.01
     6   6     0.02  -0.01  -0.01     0.10   0.03   0.00    -0.03  -0.01  -0.04
     7   1    -0.07  -0.02   0.05     0.65   0.25   0.03    -0.01  -0.10  -0.20
     8   1     0.41   0.15   0.23    -0.03   0.05  -0.01    -0.05   0.61   0.15
     9   1     0.41   0.15  -0.23     0.03  -0.05  -0.01     0.05  -0.61   0.15
    10   1    -0.07  -0.02  -0.05    -0.65  -0.25   0.03     0.01   0.10  -0.20
    11   8    -0.04  -0.02   0.00     0.00   0.00   0.01     0.00   0.00   0.18
    12   1    -0.40  -0.01   0.27     0.04   0.03   0.00     0.02   0.12  -0.04
    13   1    -0.40  -0.01  -0.27    -0.04  -0.03   0.00    -0.02  -0.12  -0.04
                     19                     20                     21
                     A'                     A'                     A"
 Frequencies --   1408.5957              1414.3119              1467.3890
 Red. masses --      1.0539                 1.0974                 1.3233
 Frc consts  --      1.2321                 1.2933                 1.6788
 IR Inten    --      0.7149                 0.6350                 7.9637
 Raman Activ --      5.6225                37.3176                 7.1262
 Depolar (P) --      0.6214                 0.7444                 0.7500
 Depolar (U) --      0.7665                 0.8535                 0.8571
  Atom  AN      X      Y      Z        X      Y      Z        X      Y      Z
     1   6     0.01   0.00  -0.01     0.00   0.01   0.04     0.00  -0.02   0.01
     2   6     0.00   0.01  -0.02     0.01   0.01   0.01     0.00  -0.01  -0.01
     3   6    -0.01   0.00   0.03     0.00  -0.04   0.01     0.03   0.01  -0.05
     4   6    -0.01   0.00  -0.03     0.00  -0.04  -0.01    -0.03  -0.01  -0.05
     5   6     0.00   0.01   0.02     0.01   0.01  -0.01     0.00   0.01  -0.01
     6   6     0.01   0.00   0.01     0.00   0.01  -0.04     0.00   0.02   0.01
     7   1     0.05  -0.17  -0.33    -0.11   0.25   0.52     0.01   0.00   0.04
     8   1    -0.07   0.42   0.06    -0.06   0.19   0.03     0.08  -0.31  -0.06
     9   1    -0.07   0.42  -0.06    -0.06   0.19  -0.03    -0.08   0.31  -0.06
    10   1     0.05  -0.17   0.33    -0.11   0.25  -0.52    -0.01   0.00   0.04
    11   8     0.02  -0.02   0.00     0.02   0.00   0.00     0.00   0.00   0.12
    12   1    -0.10  -0.28  -0.29    -0.07  -0.24  -0.21    -0.15  -0.41  -0.44
    13   1    -0.10  -0.28   0.29    -0.07  -0.24   0.21     0.15   0.41  -0.44
                     22                     23                     24
                     A"                     A'                     A"
 Frequencies --   1587.5345              1669.9992              1702.8690
 Red. masses --      1.3451                 1.5515                 1.8076
 Frc consts  --      1.9973                 2.5494                 3.0883
 IR Inten    --      7.9302                 0.4270                 4.0292
 Raman Activ --      0.9876                 4.1996                13.4813
 Depolar (P) --      0.7500                 0.1970                 0.7500
 Depolar (U) --      0.8571                 0.3291                 0.8571
  Atom  AN      X      Y      Z        X      Y      Z        X      Y      Z
     1   6     0.02  -0.03  -0.05    -0.01   0.03   0.00     0.05  -0.11  -0.09
     2   6     0.02  -0.05  -0.02     0.04  -0.09  -0.05    -0.03   0.05   0.06
     3   6    -0.03  -0.04   0.07    -0.04  -0.03   0.09     0.03   0.03  -0.06
     4   6     0.03   0.04   0.07    -0.04  -0.03  -0.09    -0.03  -0.03  -0.06
     5   6    -0.02   0.05  -0.02     0.04  -0.09   0.05     0.03  -0.05   0.06
     6   6    -0.02   0.03  -0.05    -0.01   0.03   0.00    -0.05   0.11  -0.09
     7   1    -0.08   0.18   0.35    -0.03   0.06   0.06    -0.10   0.20   0.54
     8   1    -0.10   0.43   0.07    -0.09   0.46   0.04     0.03  -0.21   0.03
     9   1     0.10  -0.43   0.07    -0.09   0.46  -0.04    -0.03   0.21   0.03
    10   1     0.08  -0.18   0.35    -0.03   0.06  -0.06     0.10  -0.20   0.54
    11   8     0.00   0.00  -0.03     0.02   0.03   0.00     0.00   0.00   0.03
    12   1    -0.08  -0.26  -0.22     0.10   0.39   0.30     0.07   0.21   0.17
    13   1     0.08   0.26  -0.22     0.10   0.39  -0.30    -0.07  -0.21   0.17
                     25                     26                     27
                     A'                     A"                     A'
 Frequencies --   1989.0555              2014.8295              2037.4330
 Red. masses --      8.7100                 7.3319                 5.6889
 Frc consts  --     20.3031                17.5364                13.9137
 IR Inten    --      8.1803                10.0142                15.7425
 Raman Activ --     64.3175                 8.8945                 2.0285
 Depolar (P) --      0.1102                 0.7500                 0.2889
 Depolar (U) --      0.1986                 0.8571                 0.4483
  Atom  AN      X      Y      Z        X      Y      Z        X      Y      Z
     1   6    -0.04   0.08   0.47     0.01  -0.06  -0.01    -0.01   0.00   0.26
     2   6     0.03  -0.24  -0.03    -0.03   0.38  -0.04     0.00   0.25  -0.07
     3   6     0.04   0.22  -0.09    -0.03  -0.34   0.14    -0.04  -0.25   0.12
     4   6     0.04   0.22   0.09     0.03   0.34   0.14    -0.04  -0.25  -0.12
     5   6     0.03  -0.24   0.03     0.03  -0.38  -0.04     0.00   0.25   0.07
     6   6    -0.04   0.08  -0.47    -0.01   0.06  -0.01    -0.01   0.00  -0.26
     7   1     0.15  -0.26  -0.10     0.01  -0.11  -0.08     0.14  -0.26  -0.18
     8   1    -0.06  -0.07   0.01     0.14  -0.23  -0.19     0.12  -0.18  -0.19
     9   1    -0.06  -0.07  -0.01    -0.14   0.23  -0.19     0.12  -0.18   0.19
    10   1     0.15  -0.26   0.10    -0.01   0.11  -0.08     0.14  -0.26   0.18
    11   8    -0.05  -0.05   0.00     0.00   0.00  -0.06     0.03   0.04   0.00
    12   1    -0.03   0.00  -0.20    -0.17   0.02  -0.24     0.14   0.07   0.24
    13   1    -0.03   0.00   0.20     0.17  -0.02  -0.24     0.14   0.07  -0.24
                     28                     29                     30
                     A"                     A'                     A"
 Frequencies --   3667.6793              3675.0106              3698.1529
 Red. masses --      1.0896                 1.0928                 1.0892
 Frc consts  --      8.6358                 8.6958                 8.7769
 IR Inten    --      0.2039                27.8154                21.1297
 Raman Activ --     45.2021                49.5317                62.1824
 Depolar (P) --      0.7500                 0.2983                 0.7500
 Depolar (U) --      0.8571                 0.4595                 0.8571
  Atom  AN      X      Y      Z        X      Y      Z        X      Y      Z
     1   6     0.00  -0.01   0.00     0.00   0.00   0.00     0.02  -0.05   0.03
     2   6     0.01   0.00  -0.02    -0.01   0.00   0.02     0.00   0.00  -0.01
     3   6    -0.02   0.04   0.03     0.02  -0.04  -0.03     0.00  -0.01  -0.01
     4   6     0.02  -0.04   0.03     0.02  -0.04   0.03     0.00   0.01  -0.01
     5   6    -0.01   0.00  -0.02    -0.01   0.00  -0.02     0.00   0.00  -0.01
     6   6     0.00   0.01   0.00     0.00   0.00   0.00    -0.02   0.05   0.03
     7   1    -0.03   0.09  -0.06     0.00  -0.01   0.00    -0.20   0.56  -0.33
     8   1    -0.09  -0.06   0.20     0.09   0.05  -0.20    -0.03  -0.02   0.08
     9   1     0.09   0.06   0.20     0.09   0.05   0.20     0.03   0.02   0.08
    10   1     0.03  -0.09  -0.06     0.00  -0.01   0.00     0.20  -0.56  -0.33
    11   8     0.00   0.00   0.00     0.00   0.00   0.00     0.00   0.00   0.00
    12   1    -0.25   0.46  -0.39    -0.26   0.47  -0.40     0.05  -0.10   0.09
    13   1     0.25  -0.46  -0.39    -0.26   0.47   0.40    -0.05   0.10   0.09
                     31                     32                     33
                     A'                     A"                     A'
 Frequencies --   3719.9440              3722.0978              3727.8283
 Red. masses --      1.0999                 1.0997                 1.1033
 Frc consts  --      8.9676                 8.9761                 9.0335
 IR Inten    --      4.9532                 3.0934                 3.7558
 Raman Activ --     50.9093                25.5680               157.5363
 Depolar (P) --      0.5800                 0.7500                 0.0861
 Depolar (U) --      0.7342                 0.8571                 0.1586
  Atom  AN      X      Y      Z        X      Y      Z        X      Y      Z
     1   6     0.01  -0.03   0.02     0.00   0.01   0.00     0.01  -0.04   0.03
     2   6     0.02   0.02  -0.04     0.02   0.02  -0.05    -0.01  -0.01   0.03
     3   6     0.01  -0.02  -0.01     0.01  -0.02  -0.01     0.00   0.01   0.01
     4   6     0.01  -0.02   0.01    -0.01   0.02  -0.01     0.00   0.01  -0.01
     5   6     0.02   0.02   0.04    -0.02  -0.02  -0.05    -0.01  -0.01  -0.03
     6   6     0.01  -0.03  -0.02     0.00  -0.01   0.00     0.01  -0.04  -0.03
     7   1    -0.13   0.36  -0.22     0.04  -0.11   0.06    -0.16   0.45  -0.27
     8   1    -0.20  -0.13   0.46    -0.26  -0.17   0.59     0.16   0.10  -0.37
     9   1    -0.20  -0.13  -0.46     0.26   0.17   0.59     0.16   0.10   0.37
    10   1    -0.13   0.36   0.22    -0.04   0.11   0.06    -0.16   0.45   0.27
    11   8     0.00   0.00   0.00     0.00   0.00   0.00     0.00   0.00   0.00
    12   1    -0.06   0.12  -0.10     0.08  -0.15   0.12     0.05  -0.09   0.08
    13   1    -0.06   0.12   0.10    -0.08   0.15   0.12     0.05  -0.09  -0.08

 -------------------
 - Thermochemistry -
 -------------------
 Temperature   298.150 Kelvin.  Pressure   1.00000 Atm.
 Atom     1 has atomic number  6 and mass  12.00000
 Atom     2 has atomic number  6 and mass  12.00000
 Atom     3 has atomic number  6 and mass  12.00000
 Atom     4 has atomic number  6 and mass  12.00000
 Atom     5 has atomic number  6 and mass  12.00000
 Atom     6 has atomic number  6 and mass  12.00000
 Atom     7 has atomic number  1 and mass   1.00783
 Atom     8 has atomic number  1 and mass   1.00783
 Atom     9 has atomic number  1 and mass   1.00783
 Atom    10 has atomic number  1 and mass   1.00783
 Atom    11 has atomic number  8 and mass  15.99491
 Atom    12 has atomic number  1 and mass   1.00783
 Atom    13 has atomic number  1 and mass   1.00783
 Molecular mass:    94.04186 amu.
 Principal axes and moments of inertia in atomic units:
                           1         2         3
     Eigenvalues --   454.95100 482.76939 876.51596
           X           -0.06320   0.00000   0.99800
           Y            0.99800   0.00000   0.06320
           Z            0.00000   1.00000   0.00000
 This molecule is an asymmetric top.
 Rotational symmetry number  1.
 Warning -- assumption of classical behavior for rotation
           may cause significant error
 Rotational temperatures (Kelvin)      0.19038     0.17941     0.09882
 Rotational constants (GHZ):           3.96689     3.73831     2.05899
 Zero-point vibrational energy     316520.8 (Joules/Mol)
                                   75.65028 (Kcal/Mol)
 Warning -- explicit consideration of   5 degrees of freedom as
           vibrations may cause significant error
 Vibrational temperatures:    261.64   466.52   590.87   709.46   722.48
          (Kelvin)           1020.55  1230.07  1294.59  1307.72  1398.55
                             1479.21  1513.20  1605.94  1609.19  1676.14
                             1682.98  1741.55  1868.65  2026.65  2034.88
                             2111.24  2284.11  2402.75  2450.05  2861.80
                             2898.89  2931.41  5276.97  5287.51  5320.81
                             5352.16  5355.26  5363.51
 
 Zero-point correction=                           0.120556 (Hartree/Particle)
 Thermal correction to Energy=                    0.125645
 Thermal correction to Enthalpy=                  0.126589
 Thermal correction to Gibbs Free Energy=         0.091671
 Sum of electronic and zero-point Energies=           -301.544784
 Sum of electronic and thermal Energies=              -301.539695
 Sum of electronic and thermal Enthalpies=            -301.538751
 Sum of electronic and thermal Free Energies=         -301.573669
 
                     E (Thermal)             CV                S
                      KCal/Mol        Cal/Mol-Kelvin    Cal/Mol-Kelvin
 Total                   78.844             18.641             73.491
 Electronic               0.000              0.000              0.000
 Translational            0.889              2.981             39.535
 Rotational               0.889              2.981             26.757
 Vibrational             77.066             12.679              7.200
 Vibration     1          0.630              1.864              2.309
 Vibration     2          0.709              1.627              1.289
 Vibration     3          0.775              1.447              0.924
 Vibration     4          0.849              1.265              0.676
 Vibration     5          0.857              1.245              0.653
                       Q            Log10(Q)             Ln(Q)
 Total Bot       0.682667D-42        -42.165791        -97.090322
 Total V=0       0.193278D+14         13.286182         30.592564
 Vib (Bot)       0.121253D-54        -54.916307       -126.449469
 Vib (Bot)    1  0.110380D+01          0.042889          0.098756
 Vib (Bot)    2  0.578277D+00         -0.237864         -0.547703
 Vib (Bot)    3  0.430592D+00         -0.365934         -0.842594
 Vib (Bot)    4  0.335342D+00         -0.474512         -1.092605
 Vib (Bot)    5  0.326671D+00         -0.485889         -1.118801
 Vib (V=0)       0.343294D+01          0.535666          1.233417
 Vib (V=0)    1  0.171176D+01          0.233443          0.537523
 Vib (V=0)    2  0.126446D+01          0.101906          0.234648
 Vib (V=0)    3  0.115986D+01          0.064404          0.148296
 Vib (V=0)    4  0.110204D+01          0.042198          0.097164
 Vib (V=0)    5  0.109726D+01          0.040308          0.092812
 Electronic      0.100000D+01          0.000000          0.000000
 Translational   0.358457D+08          7.554437         17.394734
 Rotational      0.157065D+06          5.196079         11.964413
 ***** Axes restored to original set *****
 -------------------------------------------------------------------
 Center     Atomic                   Forces (Hartrees/Bohr)
 Number     Number              X              Y              Z
 -------------------------------------------------------------------
      1        6           0.000016582   -0.000023950   -0.000077748
      2        6          -0.000015337    0.000082292    0.000028718
      3        6           0.000015216   -0.000064994    0.000011117
      4        6           0.000015216   -0.000064994   -0.000011117
      5        6          -0.000015337    0.000082292   -0.000028718
      6        6           0.000016582   -0.000023950    0.000077748
      7        1           0.000001435    0.000006144    0.000010078
      8        1          -0.000016779   -0.000006728   -0.000000121
      9        1          -0.000016779   -0.000006728    0.000000121
     10        1           0.000001435    0.000006144   -0.000010078
     11        8          -0.000024399    0.000019648    0.000000000
     12        1           0.000011083   -0.000002589    0.000008926
     13        1           0.000011083   -0.000002589   -0.000008926
 -------------------------------------------------------------------
 Cartesian Forces:  Max     0.000082292 RMS     0.000032402

 GradGradGradGradGradGradGradGradGradGradGradGradGradGradGradGradGradGrad
 Berny optimization.
 Search for a local minimum.
 Step number   1 out of a maximum of    2
 All quantities printed in internal units (Hartrees-Bohrs-Radians)
 Second derivative matrix not updated -- analytic derivatives used.
 ITU=  0
     Eigenvalues ---    0.00543   0.01101   0.01942   0.03175   0.03403
     Eigenvalues ---    0.05704   0.06466   0.07176   0.07869   0.08445
     Eigenvalues ---    0.09638   0.10004   0.11456   0.15615   0.17832
     Eigenvalues ---    0.19948   0.23369   0.24031   0.25733   0.33103
     Eigenvalues ---    0.34650   0.44548   0.57673   0.76075   0.90728
     Eigenvalues ---    1.13356   1.13861   1.23302   1.27023   1.33322
     Eigenvalues ---    1.92147   1.98634   2.03492
 Angle between quadratic step and forces=  75.84 degrees.
 ClnCor:  largest displacement from symmetrization is 1.12D-11 for atom    13.
 Linear search not attempted -- first point.
 ClnCor:  largest displacement from symmetrization is 3.55D-15 for atom     7.
 B after Tr=    -0.000011   -0.000019    0.000000
         Rot=    1.000000    0.000000    0.000000    0.000002 Ang=   0.00 deg.
 Variable       Old X    -DE/DX   Delta X   Delta X   Delta X     New X
                                 (Linear)    (Quad)   (Total)
    X1        0.52088   0.00002   0.00000   0.00006   0.00004   0.52092
    Y1       -2.70590  -0.00002   0.00000  -0.00001  -0.00003  -2.70593
    Z1        1.25090  -0.00008   0.00000  -0.00004  -0.00004   1.25086
    X2       -0.40879  -0.00002   0.00000  -0.00024  -0.00026  -0.40904
    Y2       -0.59670   0.00008   0.00000   0.00001  -0.00001  -0.59671
    Z2        2.84585   0.00003   0.00000   0.00001   0.00001   2.84586
    X3       -0.40879   0.00002   0.00000   0.00014   0.00013  -0.40865
    Y3        1.81030  -0.00006   0.00000  -0.00007  -0.00009   1.81021
    Z3        2.18815   0.00001   0.00000   0.00005   0.00005   2.18820
    X4       -0.40879   0.00002   0.00000   0.00014   0.00013  -0.40865
    Y4        1.81030  -0.00006   0.00000  -0.00007  -0.00009   1.81021
    Z4       -2.18815  -0.00001   0.00000  -0.00005  -0.00005  -2.18820
    X5       -0.40879  -0.00002   0.00000  -0.00024  -0.00026  -0.40904
    Y5       -0.59670   0.00008   0.00000   0.00001  -0.00001  -0.59671
    Z5       -2.84585  -0.00003   0.00000  -0.00001  -0.00001  -2.84586
    X6        0.52088   0.00002   0.00000   0.00006   0.00004   0.52092
    Y6       -2.70590  -0.00002   0.00000  -0.00001  -0.00003  -2.70593
    Z6       -1.25090   0.00008   0.00000   0.00004   0.00004  -1.25086
    X7        1.11789   0.00000   0.00000   0.00048   0.00044   1.11833
    Y7       -4.38821   0.00001   0.00000   0.00025   0.00022  -4.38798
    Z7        2.25541   0.00001   0.00000   0.00014   0.00014   2.25555
    X8       -1.20965  -0.00002   0.00000  -0.00071  -0.00073  -1.21038
    Y8       -1.10458  -0.00001   0.00000  -0.00010  -0.00011  -1.10469
    Z8        4.65897   0.00000   0.00000  -0.00021  -0.00021   4.65876
    X9       -1.20965  -0.00002   0.00000  -0.00071  -0.00073  -1.21038
    Y9       -1.10458  -0.00001   0.00000  -0.00010  -0.00011  -1.10469
    Z9       -4.65897   0.00000   0.00000   0.00021   0.00021  -4.65876
   X10        1.11789   0.00000   0.00000   0.00048   0.00044   1.11833
   Y10       -4.38821   0.00001   0.00000   0.00025   0.00022  -4.38798
   Z10       -2.25541  -0.00001   0.00000  -0.00014  -0.00014  -2.25555
   X11        0.76840  -0.00002   0.00000  -0.00002  -0.00002   0.76838
   Y11        2.79591   0.00002   0.00000  -0.00001  -0.00003   2.79588
   Z11        0.00000   0.00000   0.00000   0.00000   0.00000   0.00000
   X12       -1.20168   0.00001   0.00000   0.00037   0.00038  -1.20130
   Y12        3.26293   0.00000   0.00000   0.00004   0.00003   3.26297
   Z12       -3.41481   0.00001   0.00000  -0.00002  -0.00002  -3.41484
   X13       -1.20168   0.00001   0.00000   0.00037   0.00038  -1.20130
   Y13        3.26293   0.00000   0.00000   0.00004   0.00003   3.26297
   Z13        3.41481  -0.00001   0.00000   0.00002   0.00002   3.41484
         Item               Value     Threshold  Converged?
 Maximum Force            0.000082     0.000450     YES
 RMS     Force            0.000032     0.000300     YES
 Maximum Displacement     0.000726     0.001800     YES
 RMS     Displacement     0.000237     0.001200     YES
 Predicted change in Energy=-3.669403D-08
 Optimization completed.
    -- Stationary point found.
 GradGradGradGradGradGradGradGradGradGradGradGradGradGradGradGradGradGrad

 1\1\GINC-QC0019\Freq\RHF\STO-3G\C6H6O1\ELIOT\05-Oct-2018\0\\# freq hf/
 sto-3g\\oxepin-hf-sto.log\\0,1\C,0.27564,-1.4319,0.66195\C,-0.21632,-0
 .31576,1.50596\C,-0.21632,0.95797,1.15792\C,-0.21632,0.95797,-1.15792\
 C,-0.21632,-0.31576,-1.50596\C,0.27564,-1.4319,-0.66195\H,0.59156,-2.3
 2214,1.19351\H,-0.64012,-0.58452,2.46542\H,-0.64012,-0.58452,-2.46542\
 H,0.59156,-2.32214,-1.19351\O,0.40662,1.47953,0.\H,-0.6359,1.72667,-1.
 80704\H,-0.6359,1.72667,1.80704\\Version=ES64L-G09RevE.01\State=1-A'\H
 F=-301.6653405\RMSD=1.396e-09\RMSF=3.240e-05\ZeroPoint=0.1205564\Therm
 al=0.1256451\Dipole=-0.4514099,-0.2956488,0.\DipoleDeriv=-0.0375529,-0
 .093827,-0.0154148,-0.067789,0.0530552,0.1528043,-0.0231255,-0.0113299
 ,-0.0916932,-0.114057,0.0070853,-0.0584274,0.0226439,-0.2342902,0.0438
 508,-0.0238793,0.095699,-0.0467067,0.0621487,0.0441235,-0.1724257,-0.0
 744702,0.1820764,-0.1154392,-0.0845248,-0.2170522,0.3813291,0.0621487,
 0.0441235,0.1724257,-0.0744702,0.1820764,0.1154392,0.0845248,0.2170522
 ,0.3813291,-0.114057,0.0070853,0.0584274,0.0226439,-0.2342902,-0.04385
 08,0.0238793,-0.095699,-0.0467067,-0.0375529,-0.093827,0.0154148,-0.06
 7789,0.0530552,-0.1528043,0.0231255,0.0113299,-0.0916932,0.0651665,0.0
 30917,0.0386203,0.0260373,0.0203472,-0.072403,0.0042888,-0.003243,0.05
 14548,0.0533445,0.0497779,0.0253132,0.0090122,0.0539772,-0.008951,0.02
 42843,-0.0649156,0.0382104,0.0533445,0.0497779,-0.0253132,0.0090122,0.
 0539772,0.008951,-0.0242843,0.0649156,0.0382104,0.0651665,0.030917,-0.
 0386203,0.0260373,0.0203472,0.072403,-0.0042888,0.003243,0.0514548,-0.
 1943036,-0.0427648,0.,0.1352659,-0.3023597,0.,0.,0.,-0.6672289,0.06810
 21,-0.0166942,-0.0447146,0.0169329,0.076014,-0.0170912,-0.0144977,-0.0
 662577,0.0010201,0.0681021,-0.0166942,0.0447146,0.0169329,0.076014,0.0
 170912,0.0144977,0.0662577,0.0010201\Polar=11.5499037,-5.4018083,47.51
 99076,0.,0.,46.3542758\PolarDeriv=0.1756287,0.4235259,-1.2275184,4.940
 2156,0.365575,-0.8615328,0.0741506,-1.1150941,2.5680593,1.4701523,2.71
 87167,2.7886333,0.3190815,-0.4648664,3.6610535,-0.494446,2.5210817,12.
 750822,0.4766943,-3.8257159,-0.4692822,-0.6120844,-0.7226839,2.6379621
 ,-0.1502512,0.9448476,-9.4013264,0.0345047,-4.2697979,-3.9127825,-0.02
 283,-1.3193969,-0.1240565,1.5919894,-2.6823125,-2.5735882,-0.3942627,3
 .7923118,1.2460386,0.2431619,1.4619625,-1.2277872,0.2529037,0.1425898,
 6.8703076,0.063923,0.4969665,0.2568147,-0.0076169,2.5864875,-2.1080271
 ,0.427508,0.7780979,0.825904,-0.3942627,3.7923118,1.2460386,-0.2431619
 ,-1.4619625,-1.2277872,0.2529037,0.1425898,6.8703076,-0.063923,-0.4969
 665,0.2568147,0.0076169,-2.5864875,2.1080271,0.427508,0.7780979,-0.825
 904,0.4766943,-3.8257159,-0.4692822,0.6120844,0.7226839,2.6379621,-0.1
 502512,0.9448476,-9.4013264,-0.0345047,4.2697979,-3.9127825,0.02283,1.
 3193969,0.1240565,1.5919894,-2.6823125,2.5735882,0.1756287,0.4235259,-
 1.2275184,-4.9402156,-0.365575,-0.8615328,0.0741506,-1.1150941,2.56805
 93,-1.4701523,-2.7187167,2.7886333,-0.3190815,0.4648664,-3.6610535,-0.
 494446,2.5210817,-12.750822,1.2165804,-1.7288053,0.9913641,0.6971625,-
 1.2773133,0.1282975,-0.4407724,1.3996783,-5.917071,-0.8065034,2.677995
 8,-1.0512495,0.1700013,-0.530056,1.2456716,0.8134165,-2.4078169,3.1622
 374,-1.4204703,-0.2971804,0.3466162,1.9279523,1.2562827,-1.5733584,-0.
 0721821,-0.5659316,-1.4539466,0.3460694,2.0524701,-0.4635465,0.4825719
 ,0.4534274,0.474451,-1.7753852,-1.1214065,7.1743363,-1.4204703,-0.2971
 804,0.3466162,-1.9279523,-1.2562827,-1.5733584,-0.0721821,-0.5659316,-
 1.4539466,-0.3460694,-2.0524701,-0.4635465,-0.4825719,-0.4534274,-0.47
 4451,-1.7753852,-1.1214065,-7.1743363,1.2165804,-1.7288053,0.9913641,-
 0.6971625,1.2773133,0.1282975,-0.4407724,1.3996783,-5.917071,0.8065034
 ,-2.6779958,-1.0512495,-0.1700013,0.530056,-1.2456716,0.8134165,-2.407
 8169,-3.1622374,2.5094913,0.4904607,0.3999856,0.0000002,0.,4.2870074,0
 .2119349,0.9768721,4.0917705,0.,-0.0000001,2.1960667,0.,-0.0000007,0.,
 1.0153008,-0.0677269,0.0000006,-1.3089159,1.3906333,-1.0872113,-1.6188
 859,1.3707447,-1.2470849,0.2301839,-1.2945262,5.2880919,0.4950167,-2.6
 32182,1.2840974,-0.4142113,0.8993961,-1.439848,-1.070733,2.94622,-3.35
 1447,-1.3089159,1.3906333,-1.0872113,1.6188859,-1.3707447,-1.2470849,0
 .2301839,-1.2945262,5.2880919,-0.4950167,2.632182,1.2840974,0.4142113,
 -0.8993961,1.439848,-1.070733,2.94622,3.351447\HyperPolar=-1.6497284,-
 3.2174019,-3.5016875,-7.8329356,0.,0.,0.,-10.1311196,-4.3917863,0.\PG=
 CS [SG(O1),X(C6H6)]\NImag=0\\0.25929886,-0.21376844,0.75366742,-0.0006
 0118,-0.07026685,1.14161685,-0.11523116,0.07129159,0.04629234,0.288709
 60,0.05306325,-0.24022021,-0.05482213,-0.03752950,1.09481990,0.0545967
 7,-0.09723204,-0.19379843,-0.25000239,-0.15671358,0.77976956,0.0087089
 5,0.02070122,0.00801729,-0.08498343,0.00165124,0.02365757,0.31281002,0
 .01448067,-0.04774910,-0.01111037,0.00089571,-0.71931947,0.15844972,-0
 .05236559,1.17179407,-0.00889920,-0.00782736,0.02612381,0.03798860,0.1
 2582445,-0.17371207,-0.25013846,-0.07099782,0.70000259,-0.00413817,0.0
 1056459,0.01205417,0.00215454,-0.01099913,0.00325778,0.00208431,0.0172
 9110,0.00278804,0.31281002,-0.00509075,0.00400830,-0.01338020,-0.00427
 104,-0.00148414,0.00935612,0.01729110,0.00523996,0.00534130,-0.0523655
 9,1.17179407,-0.00739413,0.00551813,-0.00879143,-0.00818412,0.00100443
 ,0.01406324,-0.00278804,-0.00534130,-0.07976133,0.25013846,0.07099782,
 0.70000259,0.00707975,-0.00311212,-0.01038852,-0.00780289,0.00137527,0
 .00042899,0.00215454,-0.00427104,0.00818412,-0.08498343,0.00089571,-0.
 03798860,0.28870960,0.00481538,0.01450000,0.03606726,0.00137527,-0.014
 60968,-0.00539450,-0.01099913,-0.00148414,-0.00100443,0.00165124,-0.71
 931947,-0.12582445,-0.03752950,1.09481990,-0.01427324,0.03060534,-0.03
 195246,-0.00042899,0.00539450,-0.00009533,-0.00325778,-0.00935612,0.01
 406324,-0.02365757,-0.15844972,-0.17371207,0.25000239,0.15671358,0.779
 76956,-0.08218615,0.02638237,0.00135996,0.00707975,0.00481538,0.014273
 24,-0.00413817,-0.00509075,0.00739413,0.00870895,0.01448067,0.00889920
 ,-0.11523116,0.05306325,-0.05459677,0.25929886,0.02638237,-0.15449627,
 -0.02664869,-0.00311212,0.01450000,-0.03060534,0.01056459,0.00400830,-
 0.00551813,0.02070122,-0.04774910,0.00782736,0.07129159,-0.24022021,0.
 09723204,-0.21376844,0.75366742,-0.00135996,0.02664869,-0.73792735,0.0
 1038852,-0.03606726,-0.03195246,-0.01205417,0.01338020,-0.00879143,-0.
 00801729,0.01111037,0.02612381,-0.04629234,0.05482213,-0.19379843,0.00
 060118,0.07026685,1.14161685,-0.09068276,0.10370120,-0.04899537,0.0028
 7857,0.00485259,-0.00699086,-0.00080061,0.00180877,0.00021572,-0.00199
 549,0.00080240,0.00075152,0.01421982,0.00557613,0.00111678,0.00918210,
 0.00032625,-0.00179758,0.07480469,0.10356314,-0.33928452,0.16212087,0.
 00577488,-0.01897550,0.01692833,0.00344384,0.00074634,-0.00590431,-0.0
 0222427,-0.00072569,-0.00331348,0.00564732,0.00343028,0.00051033,0.000
 69783,0.00668291,-0.01103873,-0.11117081,0.34645600,-0.05235518,0.1550
 2662,-0.17091275,0.00822017,-0.02501657,0.01429097,0.00230108,-0.00194
 956,-0.00446944,-0.00054298,-0.00093753,-0.00038803,0.00114323,-0.0019
 2588,-0.00487369,-0.01299451,0.03684921,-0.01409462,0.05617244,-0.1633
 1179,0.17659427,0.00176446,-0.00861390,0.00571480,-0.11655611,-0.03077
 138,0.14869949,0.00515206,0.00102864,-0.00088781,0.00157179,-0.0004622
 0,0.00364799,-0.00078849,0.00081136,-0.00142759,-0.00013455,0.00211718
 ,0.00298545,0.00019747,-0.00115574,-0.00053660,0.10424235,0.01272723,0
 .01030860,-0.03112825,-0.03179730,-0.09879577,0.08660278,-0.01810978,-
 0.00537081,0.03841350,-0.00132398,-0.00112815,-0.00278118,0.00078893,0
 .00036248,0.00086959,0.00244556,-0.00553956,-0.00030709,-0.00078062,0.
 00150398,0.00050095,0.03566712,0.10152508,0.00562433,0.00749317,-0.013
 72745,0.14525361,0.09311546,-0.38085424,0.00658445,-0.00548036,-0.0055
 2147,-0.00015041,-0.00186175,-0.00020613,0.00046577,0.00085495,0.00057
 111,0.00221615,-0.00281092,0.00199653,-0.00115320,0.00029339,0.0012544
 0,-0.15686943,-0.09267188,0.39010848,-0.00013455,0.00211718,-0.0029854
 5,-0.00078849,0.00081136,0.00142759,0.00157179,-0.00046220,-0.00364799
 ,0.00515206,0.00102864,0.00088781,-0.11655611,-0.03077138,-0.14869949,
 0.00176446,-0.00861390,-0.00571480,0.00049590,-0.00013538,-0.00033034,
 0.00011050,-0.00018506,-0.00014617,0.10424235,0.00244556,-0.00553956,0
 .00030709,0.00078893,0.00036248,-0.00086959,-0.00132398,-0.00112815,0.
 00278118,-0.01810978,-0.00537081,-0.03841350,-0.03179730,-0.09879577,-
 0.08660278,0.01272723,0.01030860,0.03112825,-0.00150221,-0.00009675,0.
 00118438,-0.00018506,0.00024766,0.00012503,0.03566712,0.10152508,-0.00
 221615,0.00281092,0.00199653,-0.00046577,-0.00085495,0.00057111,0.0001
 5041,0.00186175,-0.00020613,-0.00658445,0.00548036,-0.00552147,-0.1452
 5361,-0.09311546,-0.38085424,-0.00562433,-0.00749317,-0.01372745,0.000
 69913,-0.00003764,-0.00044422,0.00014617,-0.00012503,-0.00014996,0.156
 86943,0.09267188,0.39010848,0.00918210,0.00032625,0.00179758,0.0142198
 2,0.00557613,-0.00111678,-0.00199549,0.00080240,-0.00075152,-0.0008006
 1,0.00180877,-0.00021572,0.00287857,0.00485259,0.00699086,-0.09068276,
 0.10370120,0.04899537,-0.00981649,-0.00440126,-0.00050842,0.00049590,-
 0.00150221,-0.00069913,0.00019747,-0.00078062,0.00115320,0.07480469,0.
 00069783,0.00668291,0.01103873,0.00564732,0.00343028,-0.00051033,-0.00
 222427,-0.00072569,0.00331348,0.00344384,0.00074634,0.00590431,0.00577
 488,-0.01897550,-0.01692833,0.10356314,-0.33928452,-0.16212087,-0.0044
 0126,0.00061766,-0.00005027,-0.00013538,-0.00009675,0.00003764,-0.0011
 5574,0.00150398,-0.00029339,-0.11117081,0.34645600,0.01299451,-0.03684
 921,-0.01409462,-0.00114323,0.00192588,-0.00487369,0.00054298,0.000937
 53,-0.00038803,-0.00230108,0.00194956,-0.00446944,-0.00822017,0.025016
 57,0.01429097,0.05235518,-0.15502662,-0.17091275,0.00050842,0.00005027
 ,0.00210404,0.00033034,-0.00118438,-0.00044422,0.00053660,-0.00050095,
 0.00125440,-0.05617244,0.16331179,0.17659427,-0.00344364,-0.01422207,-
 0.02455263,-0.00208091,0.01496791,0.01381103,-0.12460211,-0.08386430,0
 .11623962,-0.12460212,-0.08386431,-0.11623961,-0.00208092,0.01496792,-
 0.01381103,-0.00344363,-0.01422207,0.02455263,0.00275123,0.00147961,0.
 00058103,0.01049360,0.00302977,0.00263555,0.01049361,0.00302977,-0.002
 63555,0.00275122,0.00147961,-0.00058103,0.22983579,-0.00030655,0.00104
 298,-0.00622634,-0.02459065,-0.00464095,0.04633390,-0.06927817,-0.1329
 2084,0.07214031,-0.06927818,-0.13292083,-0.07214030,-0.02459064,-0.004
 64095,-0.04633392,-0.00030655,0.00104297,0.00622634,0.00076981,0.00061
 884,0.00054097,0.00264483,-0.00457897,0.00095599,0.00264483,-0.0045789
 7,-0.00095599,0.00076980,0.00061884,-0.00054097,0.16726660,0.25043822,
 0.00552014,-0.01374533,-0.00096947,0.01355570,0.02803511,-0.03289595,0
 .13996178,0.09723551,-0.27236870,-0.13996178,-0.09723551,-0.27236870,-
 0.01355573,-0.02803511,-0.03289594,-0.00552012,0.01374534,-0.00096949,
 -0.00046459,0.00254325,0.00055903,0.00276047,0.00220697,0.00638497,-0.
 00276047,-0.00220698,0.00638497,0.00046459,-0.00254326,0.00055902,0.,0
 .,0.65699569,-0.00162342,0.00224414,0.00274711,0.00189302,-0.00338126,
 -0.00212259,-0.00286314,0.00291474,-0.00127668,-0.11309870,0.10683186,
 -0.09279143,0.01050767,-0.00443187,-0.00008016,0.01140571,0.00238799,-
 0.00953991,-0.00124477,-0.00034985,-0.00006587,0.00039634,0.00026627,0
 .00028514,-0.00694533,-0.00122594,0.00404667,0.00001035,-0.00116933,0.
 00108404,0.00196394,0.00712744,-0.01204594,0.09976067,-0.00006120,0.00
 048056,-0.00057049,0.00044400,0.00015316,-0.00076835,-0.00317589,-0.00
 058872,0.00007723,0.10382482,-0.27250177,0.15663939,0.01508291,-0.0152
 2012,0.02557715,0.00105149,-0.00340111,-0.00461938,-0.00013168,-0.0000
 4345,0.00021080,0.00015202,0.00020406,0.00026954,-0.00109749,0.0013581
 4,0.00032026,0.00014943,-0.00093011,0.00112133,-0.00502422,0.01525983,
 -0.01506948,-0.11130355,0.27501362,0.00141726,-0.00347114,-0.00121711,
 0.00075586,0.00180791,-0.00205062,-0.00580508,-0.00177854,0.00470006,-
 0.09282797,0.16585062,-0.19967109,0.00223032,-0.01636675,0.01153790,-0
 .00694603,-0.00128906,0.00365391,0.00054675,0.00086665,0.00026653,-0.0
 0009017,0.00049306,0.00049646,0.00447313,0.00088903,0.00009155,0.00060
 915,-0.00029286,0.00011350,-0.01451098,0.01617948,-0.02920771,0.109953
 69,-0.16303820,0.21211880,0.01140571,0.00238799,0.00953991,0.01050767,
 -0.00443187,0.00008016,-0.11309870,0.10683186,0.09279143,-0.00286314,0
 .00291474,0.00127668,0.00189302,-0.00338126,0.00212259,-0.00162342,0.0
 0224414,-0.00274711,0.00001035,-0.00116933,-0.00108404,-0.00694533,-0.
 00122594,-0.00404667,0.00039634,0.00026627,-0.00028514,-0.00124477,-0.
 00034985,0.00006587,0.00196394,0.00712744,0.01204594,-0.00016234,0.000
 08937,0.00019407,0.09976067,0.00105149,-0.00340111,0.00461938,0.015082
 91,-0.01522012,-0.02557715,0.10382482,-0.27250177,-0.15663939,-0.00317
 589,-0.00058872,-0.00007723,0.00044400,0.00015316,0.00076835,-0.000061
 20,0.00048056,0.00057049,0.00014943,-0.00093011,-0.00112133,-0.0010974
 9,0.00135814,-0.00032026,0.00015202,0.00020406,-0.00026954,-0.00013168
 ,-0.00004345,-0.00021080,-0.00502422,0.01525983,0.01506948,0.00008937,
 0.00021591,0.00014981,-0.11130355,0.27501362,0.00694603,0.00128906,0.0
 0365391,-0.00223032,0.01636675,0.01153790,0.09282797,-0.16585062,-0.19
 967109,0.00580508,0.00177854,0.00470006,-0.00075586,-0.00180791,-0.002
 05062,-0.00141726,0.00347114,-0.00121711,-0.00060915,0.00029286,0.0001
 1350,-0.00447313,-0.00088903,0.00009155,0.00009017,-0.00049306,0.00049
 646,-0.00054675,-0.00086665,0.00026653,0.01451098,-0.01617948,-0.02920
 771,-0.00019407,-0.00014981,-0.00083218,-0.10995369,0.16303820,0.21211
 880\\-0.00001658,0.00002395,0.00007775,0.00001534,-0.00008229,-0.00002
 872,-0.00001522,0.00006499,-0.00001112,-0.00001522,0.00006499,0.000011
 12,0.00001534,-0.00008229,0.00002872,-0.00001658,0.00002395,-0.0000777
 5,-0.00000143,-0.00000614,-0.00001008,0.00001678,0.00000673,0.00000012
 ,0.00001678,0.00000673,-0.00000012,-0.00000143,-0.00000614,0.00001008,
 0.00002440,-0.00001965,0.,-0.00001108,0.00000259,-0.00000893,-0.000011
 08,0.00000259,0.00000893\\\@


 The impersonal hand of government can
 never replace the helping hand of a neighbor.
                        -- Hubert H. Humphrey
 Job cpu time:       0 days  0 hours  0 minutes  2.5 seconds.
 File lengths (MBytes):  RWF=      5 Int=      0 D2E=      0 Chk=      1 Scr=      1
 Normal termination of Gaussian 09 at Fri Oct  5 10:43:50 2018.
