 Entering Gaussian System, Link 0=/home/eliot/software/g09E01/g09
 Initial command:
 /home/eliot/software/g09E01/l1.exe "/tmp/Gau-7249.inp" -scrdir="/tmp/"
 Entering Link 1 = /home/eliot/software/g09E01/l1.exe PID=      7251.
  
 Copyright (c) 1988,1990,1992,1993,1995,1998,2003,2009,2015,
            Gaussian, Inc.  All Rights Reserved.
  
 This is part of the Gaussian(R) 09 program.  It is based on
 the Gaussian(R) 03 system (copyright 2003, Gaussian, Inc.),
 the Gaussian(R) 98 system (copyright 1998, Gaussian, Inc.),
 the Gaussian(R) 94 system (copyright 1995, Gaussian, Inc.),
 the Gaussian 92(TM) system (copyright 1992, Gaussian, Inc.),
 the Gaussian 90(TM) system (copyright 1990, Gaussian, Inc.),
 the Gaussian 88(TM) system (copyright 1988, Gaussian, Inc.),
 the Gaussian 86(TM) system (copyright 1986, Carnegie Mellon
 University), and the Gaussian 82(TM) system (copyright 1983,
 Carnegie Mellon University). Gaussian is a federally registered
 trademark of Gaussian, Inc.
  
 This software contains proprietary and confidential information,
 including trade secrets, belonging to Gaussian, Inc.
  
 This software is provided under written license and may be
 used, copied, transmitted, or stored only in accord with that
 written license.
  
 The following legend is applicable only to US Government
 contracts under FAR:
  
                    RESTRICTED RIGHTS LEGEND
  
 Use, reproduction and disclosure by the US Government is
 subject to restrictions as set forth in subparagraphs (a)
 and (c) of the Commercial Computer Software - Restricted
 Rights clause in FAR 52.227-19.
  
 Gaussian, Inc.
 340 Quinnipiac St., Bldg. 40, Wallingford CT 06492
  
  
 ---------------------------------------------------------------
 Warning -- This program may not be used in any manner that
 competes with the business of Gaussian, Inc. or will provide
 assistance to any competitor of Gaussian, Inc.  The licensee
 of this program is prohibited from giving any competitor of
 Gaussian, Inc. access to this program.  By using this program,
 the user acknowledges that Gaussian, Inc. is engaged in the
 business of creating and licensing software in the field of
 computational chemistry and represents and warrants to the
 licensee that it is not a competitor of Gaussian, Inc. and that
 it will not use this program in any manner prohibited above.
 ---------------------------------------------------------------
  

 Cite this work as:
 Gaussian 09, Revision E.01,
 M. J. Frisch, G. W. Trucks, H. B. Schlegel, G. E. Scuseria, 
 M. A. Robb, J. R. Cheeseman, G. Scalmani, V. Barone, B. Mennucci, 
 G. A. Petersson, H. Nakatsuji, M. Caricato, X. Li, H. P. Hratchian, 
 A. F. Izmaylov, J. Bloino, G. Zheng, J. L. Sonnenberg, M. Hada, 
 M. Ehara, K. Toyota, R. Fukuda, J. Hasegawa, M. Ishida, T. Nakajima, 
 Y. Honda, O. Kitao, H. Nakai, T. Vreven, J. A. Montgomery, Jr., 
 J. E. Peralta, F. Ogliaro, M. Bearpark, J. J. Heyd, E. Brothers, 
 K. N. Kudin, V. N. Staroverov, T. Keith, R. Kobayashi, J. Normand, 
 K. Raghavachari, A. Rendell, J. C. Burant, S. S. Iyengar, J. Tomasi, 
 M. Cossi, N. Rega, J. M. Millam, M. Klene, J. E. Knox, J. B. Cross, 
 V. Bakken, C. Adamo, J. Jaramillo, R. Gomperts, R. E. Stratmann, 
 O. Yazyev, A. J. Austin, R. Cammi, C. Pomelli, J. W. Ochterski, 
 R. L. Martin, K. Morokuma, V. G. Zakrzewski, G. A. Voth, 
 P. Salvador, J. J. Dannenberg, S. Dapprich, A. D. Daniels, 
 O. Farkas, J. B. Foresman, J. V. Ortiz, J. Cioslowski, 
 and D. J. Fox, Gaussian, Inc., Wallingford CT, 2013.
 
 ******************************************
 Gaussian 09:  ES64L-G09RevE.01 30-Nov-2015
                 5-Oct-2018 
 ******************************************
 %nproc=2
 Will use up to    2 processors via shared memory.
 ----------------------------------
 # opt=(ts,calcfc,noeigen) bp86/SVP
 ----------------------------------
 1/5=1,10=4,11=1,14=-1,18=20,26=3,38=1/1,3;
 2/9=110,12=2,17=6,18=5,40=1/2;
 3/5=18,7=101,11=2,16=1,25=1,30=1,71=2,74=404,140=1/1,2,3;
 4//1;
 5/5=2,38=5/2;
 8/6=4,10=90,11=11/1;
 11/6=1,8=1,9=11,15=111,16=1/1,2,10;
 10/6=1,13=1/2;
 6/7=2,8=2,9=2,10=2,28=1/1;
 7/10=1,18=20,25=1/1,2,3,16;
 1/5=1,10=4,11=1,14=-1,18=20,26=3/3(2);
 2/9=110/2;
 99//99;
 2/9=110/2;
 3/5=18,7=101,11=2,16=1,25=1,30=1,71=1,74=404/1,2,3;
 4/5=5,16=3,69=1/1;
 5/5=2,38=5/2;
 7//1,2,3,16;
 1/5=1,11=1,14=-1,18=20,26=3/3(-5);
 2/9=110/2;
 6/7=2,8=2,9=2,10=2,19=2,28=1/1;
 99/9=1/99;
 ------
 ts.log
 ------
 Symbolic Z-matrix:
 Charge =  0 Multiplicity = 1
 C                     1.41399  -0.70371   0.16313 
 C                     0.306    -1.45066  -0.24152 
 C                    -0.99007  -0.9199   -0.23037 
 C                    -0.99006   0.91991  -0.23036 
 C                     0.30602   1.45066  -0.24152 
 C                     1.41401   0.70369   0.16313 
 H                     2.37589  -1.21217   0.27758 
 H                     0.45104  -2.44555  -0.6733 
 H                     0.45109   2.44554  -0.67331 
 H                     2.37592   1.21213   0.27757 
 O                    -1.3443    0.00001   0.74631 
 H                    -1.82945   1.41209  -0.73696 
 H                    -1.82947  -1.41207  -0.73696 
 

 GradGradGradGradGradGradGradGradGradGradGradGradGradGradGradGradGradGrad
 Berny optimization.
 Initialization pass.
                           ----------------------------
                           !    Initial Parameters    !
                           ! (Angstroms and Degrees)  !
 --------------------------                            --------------------------
 ! Name  Definition              Value          Derivative Info.                !
 --------------------------------------------------------------------------------
 ! R1    R(1,2)                  1.3962         calculate D2E/DX2 analytically  !
 ! R2    R(1,6)                  1.4074         calculate D2E/DX2 analytically  !
 ! R3    R(1,7)                  1.094          calculate D2E/DX2 analytically  !
 ! R4    R(2,3)                  1.4006         calculate D2E/DX2 analytically  !
 ! R5    R(2,8)                  1.0942         calculate D2E/DX2 analytically  !
 ! R6    R(3,11)                 1.3877         calculate D2E/DX2 analytically  !
 ! R7    R(3,13)                 1.097          calculate D2E/DX2 analytically  !
 ! R8    R(4,5)                  1.4006         calculate D2E/DX2 analytically  !
 ! R9    R(4,11)                 1.3877         calculate D2E/DX2 analytically  !
 ! R10   R(4,12)                 1.097          calculate D2E/DX2 analytically  !
 ! R11   R(5,6)                  1.3962         calculate D2E/DX2 analytically  !
 ! R12   R(5,9)                  1.0942         calculate D2E/DX2 analytically  !
 ! R13   R(6,10)                 1.094          calculate D2E/DX2 analytically  !
 ! A1    A(2,1,6)              122.3444         calculate D2E/DX2 analytically  !
 ! A2    A(2,1,7)              118.6477         calculate D2E/DX2 analytically  !
 ! A3    A(6,1,7)              117.694          calculate D2E/DX2 analytically  !
 ! A4    A(1,2,3)              121.9597         calculate D2E/DX2 analytically  !
 ! A5    A(1,2,8)              119.7102         calculate D2E/DX2 analytically  !
 ! A6    A(3,2,8)              118.058          calculate D2E/DX2 analytically  !
 ! A7    A(2,3,11)             119.5408         calculate D2E/DX2 analytically  !
 ! A8    A(2,3,13)             122.3015         calculate D2E/DX2 analytically  !
 ! A9    A(11,3,13)            115.2842         calculate D2E/DX2 analytically  !
 ! A10   A(5,4,11)             119.5413         calculate D2E/DX2 analytically  !
 ! A11   A(5,4,12)             122.3008         calculate D2E/DX2 analytically  !
 ! A12   A(11,4,12)            115.2846         calculate D2E/DX2 analytically  !
 ! A13   A(4,5,6)              121.9594         calculate D2E/DX2 analytically  !
 ! A14   A(4,5,9)              118.0592         calculate D2E/DX2 analytically  !
 ! A15   A(6,5,9)              119.7093         calculate D2E/DX2 analytically  !
 ! A16   A(1,6,5)              122.3435         calculate D2E/DX2 analytically  !
 ! A17   A(1,6,10)             117.6945         calculate D2E/DX2 analytically  !
 ! A18   A(5,6,10)             118.648          calculate D2E/DX2 analytically  !
 ! A19   A(3,11,4)              83.0456         calculate D2E/DX2 analytically  !
 ! D1    D(6,1,2,3)            -22.5187         calculate D2E/DX2 analytically  !
 ! D2    D(6,1,2,8)            151.3719         calculate D2E/DX2 analytically  !
 ! D3    D(7,1,2,3)            170.88           calculate D2E/DX2 analytically  !
 ! D4    D(7,1,2,8)            -15.2294         calculate D2E/DX2 analytically  !
 ! D5    D(2,1,6,5)              0.0004         calculate D2E/DX2 analytically  !
 ! D6    D(2,1,6,10)          -166.7218         calculate D2E/DX2 analytically  !
 ! D7    D(7,1,6,5)            166.7227         calculate D2E/DX2 analytically  !
 ! D8    D(7,1,6,10)             0.0006         calculate D2E/DX2 analytically  !
 ! D9    D(1,2,3,11)           -33.2842         calculate D2E/DX2 analytically  !
 ! D10   D(1,2,3,13)           166.8166         calculate D2E/DX2 analytically  !
 ! D11   D(8,2,3,11)           152.7283         calculate D2E/DX2 analytically  !
 ! D12   D(8,2,3,13)            -7.1708         calculate D2E/DX2 analytically  !
 ! D13   D(2,3,11,4)            94.5881         calculate D2E/DX2 analytically  !
 ! D14   D(13,3,11,4)         -104.1515         calculate D2E/DX2 analytically  !
 ! D15   D(11,4,5,6)            33.284          calculate D2E/DX2 analytically  !
 ! D16   D(11,4,5,9)          -152.7292         calculate D2E/DX2 analytically  !
 ! D17   D(12,4,5,6)          -166.8159         calculate D2E/DX2 analytically  !
 ! D18   D(12,4,5,9)             7.1708         calculate D2E/DX2 analytically  !
 ! D19   D(5,4,11,3)           -94.588          calculate D2E/DX2 analytically  !
 ! D20   D(12,4,11,3)          104.151          calculate D2E/DX2 analytically  !
 ! D21   D(4,5,6,1)             22.5186         calculate D2E/DX2 analytically  !
 ! D22   D(4,5,6,10)          -170.8803         calculate D2E/DX2 analytically  !
 ! D23   D(9,5,6,1)           -151.3715         calculate D2E/DX2 analytically  !
 ! D24   D(9,5,6,10)            15.2296         calculate D2E/DX2 analytically  !
 --------------------------------------------------------------------------------
 Trust Radius=3.00D-01 FncErr=1.00D-07 GrdErr=1.00D-06
 Number of steps in this run=     66 maximum allowed number of steps=    100.
 Search for a saddle point of order  1.
 GradGradGradGradGradGradGradGradGradGradGradGradGradGradGradGradGradGrad

                          Input orientation:                          
 ---------------------------------------------------------------------
 Center     Atomic      Atomic             Coordinates (Angstroms)
 Number     Number       Type             X           Y           Z
 ---------------------------------------------------------------------
      1          6           0        1.413990   -0.703710    0.163130
      2          6           0        0.306000   -1.450660   -0.241520
      3          6           0       -0.990070   -0.919900   -0.230370
      4          6           0       -0.990060    0.919910   -0.230360
      5          6           0        0.306020    1.450660   -0.241520
      6          6           0        1.414010    0.703690    0.163130
      7          1           0        2.375890   -1.212170    0.277580
      8          1           0        0.451040   -2.445550   -0.673300
      9          1           0        0.451090    2.445540   -0.673310
     10          1           0        2.375920    1.212130    0.277570
     11          8           0       -1.344300    0.000010    0.746310
     12          1           0       -1.829450    1.412090   -0.736960
     13          1           0       -1.829470   -1.412070   -0.736960
 ---------------------------------------------------------------------
                    Distance matrix (angstroms):
                    1          2          3          4          5
     1  C    0.000000
     2  C    1.396180   0.000000
     3  C    2.445626   1.400581   0.000000
     4  C    2.927530   2.701758   1.839810   0.000000
     5  C    2.456145   2.901320   2.701764   1.400587   0.000000
     6  C    1.407400   2.456146   2.927539   2.445637   1.396190
     7  H    1.094021   2.147274   3.416595   4.016639   3.412402
     8  H    2.158910   1.094201   2.144899   3.687721   3.922744
     9  H    3.397732   3.922737   3.687726   2.144916   1.094200
    10  H    2.146823   3.412400   4.016646   3.416607   2.147286
    11  O    2.905767   2.409096   1.387666   1.387655   2.409097
    12  H    3.975761   3.605682   2.529698   1.097023   2.192528
    13  H    3.439763   2.192529   1.097022   2.529700   3.605690
                    6          7          8          9         10
     6  C    0.000000
     7  H    2.146819   0.000000
     8  H    3.397740   2.475974   0.000000
     9  H    2.158909   4.241213   4.891090   0.000000
    10  H    1.094019   2.424300   4.241219   2.475973   0.000000
    11  O    2.905777   3.940673   3.349523   3.349532   3.940684
    12  H    3.439771   5.059735   4.481749   2.504582   4.330634
    13  H    3.975772   4.330624   2.504568   4.481759   5.059743
                   11         12         13
    11  O    0.000000
    12  H    2.104621   0.000000
    13  H    2.104626   2.824160   0.000000
 Stoichiometry    C6H6O
 Framework group  C1[X(C6H6O)]
 Deg. of freedom    33
 Full point group                 C1      NOp   1
 Largest Abelian subgroup         C1      NOp   1
 Largest concise Abelian subgroup C1      NOp   1
                         Standard orientation:                         
 ---------------------------------------------------------------------
 Center     Atomic      Atomic             Coordinates (Angstroms)
 Number     Number       Type             X           Y           Z
 ---------------------------------------------------------------------
      1          6           0       -1.413989    0.703714    0.163129
      2          6           0       -0.305997    1.450661   -0.241521
      3          6           0        0.990072    0.919897   -0.230371
      4          6           0        0.990057   -0.919913   -0.230361
      5          6           0       -0.306025   -1.450659   -0.241521
      6          6           0       -1.414013   -0.703686    0.163129
      7          1           0       -2.375887    1.212177    0.277579
      8          1           0       -0.451034    2.445551   -0.673301
      9          1           0       -0.451098   -2.445539   -0.673311
     10          1           0       -2.375924   -1.212123    0.277569
     11          8           0        1.344299   -0.000014    0.746309
     12          1           0        1.829445   -1.412096   -0.736961
     13          1           0        1.829473    1.412064   -0.736961
 ---------------------------------------------------------------------
 Rotational constants (GHZ):      4.3580897      3.7300650      2.2663139
 Standard basis: SVP (5D, 7F)
 There are   135 symmetry adapted cartesian basis functions of A   symmetry.
 There are   128 symmetry adapted basis functions of A   symmetry.
   128 basis functions,   217 primitive gaussians,   135 cartesian basis functions
    25 alpha electrons       25 beta electrons
       nuclear repulsion energy       279.6735677595 Hartrees.
 NAtoms=   13 NActive=   13 NUniq=   13 SFac= 1.00D+00 NAtFMM=   60 NAOKFM=F Big=F
 Integral buffers will be    131072 words long.
 Raffenetti 2 integral format.
 Two-electron integral symmetry is turned on.
 One-electron integrals computed using PRISM.
 NBasis=   128 RedAO= T EigKep=  5.18D-04  NBF=   128
 NBsUse=   128 1.00D-06 EigRej= -1.00D+00 NBFU=   128
 ExpMin= 1.22D-01 ExpMax= 2.27D+03 ExpMxC= 3.41D+02 IAcc=1 IRadAn=         1 AccDes= 0.00D+00
 Harris functional with IExCor=  404 and IRadAn=       1 diagonalized for initial guess.
 HarFok:  IExCor=  404 AccDes= 0.00D+00 IRadAn=         1 IDoV= 1 UseB2=F ITyADJ=14
 ICtDFT=  3500011 ScaDFX=  1.000000  1.000000  1.000000  1.000000
 FoFCou: FMM=F IPFlag=           0 FMFlag=      100000 FMFlg1=           0
         NFxFlg=           0 DoJE=T BraDBF=F KetDBF=T FulRan=T
         wScrn=  0.000000 ICntrl=     500 IOpCl=  0 I1Cent=   200000004 NGrid=           0
         NMat0=    1 NMatS0=      1 NMatT0=    0 NMatD0=    1 NMtDS0=    0 NMtDT0=    0
 Petite list used in FoFCou.
 Requested convergence on RMS density matrix=1.00D-08 within 128 cycles.
 Requested convergence on MAX density matrix=1.00D-06.
 Requested convergence on             energy=1.00D-06.
 No special actions if energy rises.
 Integral accuracy reduced to 1.0D-05 until final iterations.
 Initial convergence to 1.0D-05 achieved.  Increase integral accuracy.
 SCF Done:  E(RB-P86) =  -307.166324292     A.U. after   15 cycles
            NFock= 15  Conv=0.39D-08     -V/T= 2.0106
 Range of M.O.s used for correlation:     1   128
 NBasis=   128 NAE=    25 NBE=    25 NFC=     0 NFV=     0
 NROrb=    128 NOA=    25 NOB=    25 NVA=   103 NVB=   103
 Symmetrizing basis deriv contribution to polar:
 IMax=3 JMax=2 DiffMx= 0.00D+00
 G2DrvN: will do    14 centers at a time, making    1 passes.
 Calling FoFCou, ICntrl=  3507 FMM=F I1Cent=   0 AccDes= 0.00D+00.
 End of G2Drv F.D. properties file   721 does not exist.
 End of G2Drv F.D. properties file   722 does not exist.
 End of G2Drv F.D. properties file   788 does not exist.
          IDoAtm=1111111111111
          Differentiating once with respect to nuclear coordinates.
          There are    42 degrees of freedom in the 1st order CPHF.  IDoFFX=6 NUNeed=     0.
     36 vectors produced by pass  0 Test12= 6.13D-15 2.38D-09 XBig12= 1.72D-01 1.74D-01.
 AX will form    36 AO Fock derivatives at one time.
     36 vectors produced by pass  1 Test12= 6.13D-15 2.38D-09 XBig12= 6.51D-02 1.09D-01.
     36 vectors produced by pass  2 Test12= 6.13D-15 2.38D-09 XBig12= 3.56D-04 3.00D-03.
     36 vectors produced by pass  3 Test12= 6.13D-15 2.38D-09 XBig12= 5.70D-07 1.35D-04.
     36 vectors produced by pass  4 Test12= 6.13D-15 2.38D-09 XBig12= 4.10D-10 2.68D-06.
     13 vectors produced by pass  5 Test12= 6.13D-15 2.38D-09 XBig12= 1.30D-13 4.46D-08.
 InvSVY:  IOpt=1 It=  1 EMax= 1.67D-15
 Solved reduced A of dimension   193 with    36 vectors.
 End of Minotr F.D. properties file   721 does not exist.
 End of Minotr F.D. properties file   722 does not exist.
 End of Minotr F.D. properties file   788 does not exist.

 **********************************************************************

            Population analysis using the SCF density.

 **********************************************************************

 Orbital symmetries:
       Occupied  (A) (A) (A) (A) (A) (A) (A) (A) (A) (A) (A) (A)
                 (A) (A) (A) (A) (A) (A) (A) (A) (A) (A) (A) (A)
                 (A)
       Virtual   (A) (A) (A) (A) (A) (A) (A) (A) (A) (A) (A) (A)
                 (A) (A) (A) (A) (A) (A) (A) (A) (A) (A) (A) (A)
                 (A) (A) (A) (A) (A) (A) (A) (A) (A) (A) (A) (A)
                 (A) (A) (A) (A) (A) (A) (A) (A) (A) (A) (A) (A)
                 (A) (A) (A) (A) (A) (A) (A) (A) (A) (A) (A) (A)
                 (A) (A) (A) (A) (A) (A) (A) (A) (A) (A) (A) (A)
                 (A) (A) (A) (A) (A) (A) (A) (A) (A) (A) (A) (A)
                 (A) (A) (A) (A) (A) (A) (A) (A) (A) (A) (A) (A)
                 (A) (A) (A) (A) (A) (A) (A)
 The electronic state is 1-A.
 Alpha  occ. eigenvalues --  -18.80451  -9.98079  -9.98077  -9.92212  -9.92195
 Alpha  occ. eigenvalues --   -9.91938  -9.91934  -1.00002  -0.74424  -0.69602
 Alpha  occ. eigenvalues --   -0.62260  -0.58172  -0.51337  -0.48178  -0.47359
 Alpha  occ. eigenvalues --   -0.42430  -0.41244  -0.40315  -0.37760  -0.34039
 Alpha  occ. eigenvalues --   -0.32425  -0.30579  -0.23962  -0.22011  -0.21852
 Alpha virt. eigenvalues --   -0.05389  -0.04156   0.03783   0.06170   0.07014
 Alpha virt. eigenvalues --    0.07761   0.11181   0.12045   0.13159   0.13751
 Alpha virt. eigenvalues --    0.19888   0.25289   0.26207   0.27105   0.33908
 Alpha virt. eigenvalues --    0.36964   0.37133   0.39938   0.40269   0.40688
 Alpha virt. eigenvalues --    0.41337   0.44371   0.45198   0.46121   0.48807
 Alpha virt. eigenvalues --    0.51335   0.52308   0.55462   0.56077   0.58512
 Alpha virt. eigenvalues --    0.58995   0.60301   0.62580   0.64092   0.66135
 Alpha virt. eigenvalues --    0.66820   0.67378   0.69802   0.70809   0.70879
 Alpha virt. eigenvalues --    0.78765   0.82138   0.88690   0.91393   0.98500
 Alpha virt. eigenvalues --    1.03604   1.09012   1.15485   1.21507   1.23785
 Alpha virt. eigenvalues --    1.24055   1.26051   1.27047   1.35874   1.37745
 Alpha virt. eigenvalues --    1.39637   1.57232   1.62179   1.62496   1.64087
 Alpha virt. eigenvalues --    1.64672   1.65981   1.67112   1.68134   1.70897
 Alpha virt. eigenvalues --    1.72401   1.75111   1.79827   1.81323   1.84769
 Alpha virt. eigenvalues --    1.86334   1.89364   1.92008   1.92929   1.95509
 Alpha virt. eigenvalues --    1.96780   2.00642   2.07795   2.09152   2.12444
 Alpha virt. eigenvalues --    2.15823   2.26643   2.26762   2.31051   2.31201
 Alpha virt. eigenvalues --    2.37970   2.46825   2.46867   2.56549   2.57472
 Alpha virt. eigenvalues --    2.64186   2.65744   2.70500   2.76491   2.83061
 Alpha virt. eigenvalues --    2.85413   2.90806   2.95690   3.06102   3.14002
 Alpha virt. eigenvalues --    3.23677   3.33787   3.48499
          Condensed to atoms (all electrons):
               1          2          3          4          5          6
     1  C    4.956719   0.357900   0.036813  -0.067823   0.001224   0.403888
     2  C    0.357900   5.077284   0.355413  -0.006375  -0.035158   0.001223
     3  C    0.036813   0.355413   4.946588   0.036103  -0.006375  -0.067822
     4  C   -0.067823  -0.006375   0.036103   4.946584   0.355410   0.036813
     5  C    0.001224  -0.035158  -0.006375   0.355410   5.077295   0.357902
     6  C    0.403888   0.001223  -0.067822   0.036813   0.357902   4.956716
     7  H    0.415495  -0.060573   0.012827  -0.000714   0.014162  -0.058843
     8  H   -0.052816   0.411840  -0.057021   0.004401  -0.002052   0.012414
     9  H    0.012414  -0.002052   0.004400  -0.057020   0.411838  -0.052814
    10  H   -0.058843   0.014162  -0.000714   0.012827  -0.060573   0.415496
    11  O    0.002739  -0.065014   0.274893   0.274898  -0.065015   0.002739
    12  H    0.001249  -0.003842   0.002125   0.397118  -0.063011   0.010411
    13  H    0.010411  -0.063009   0.397119   0.002124  -0.003842   0.001249
               7          8          9         10         11         12
     1  C    0.415495  -0.052816   0.012414  -0.058843   0.002739   0.001249
     2  C   -0.060573   0.411840  -0.002052   0.014162  -0.065014  -0.003842
     3  C    0.012827  -0.057021   0.004400  -0.000714   0.274893   0.002125
     4  C   -0.000714   0.004401  -0.057020   0.012827   0.274898   0.397118
     5  C    0.014162  -0.002052   0.411838  -0.060573  -0.065015  -0.063011
     6  C   -0.058843   0.012414  -0.052814   0.415496   0.002739   0.010411
     7  H    0.697914  -0.012803  -0.000320  -0.015947  -0.000128   0.000018
     8  H   -0.012803   0.686574   0.000052  -0.000320   0.003681   0.000116
     9  H   -0.000320   0.000052   0.686574  -0.012802   0.003681  -0.006608
    10  H   -0.015947  -0.000320  -0.012802   0.697912  -0.000128  -0.000388
    11  O   -0.000128   0.003681   0.003681  -0.000128   7.881623  -0.039071
    12  H    0.000018   0.000116  -0.006608  -0.000388  -0.039071   0.669557
    13  H   -0.000388  -0.006608   0.000116   0.000018  -0.039070   0.000730
              13
     1  C    0.010411
     2  C   -0.063009
     3  C    0.397119
     4  C    0.002124
     5  C   -0.003842
     6  C    0.001249
     7  H   -0.000388
     8  H   -0.006608
     9  H    0.000116
    10  H    0.000018
    11  O   -0.039070
    12  H    0.000730
    13  H    0.669553
 Mulliken charges:
               1
     1  C   -0.019370
     2  C    0.018200
     3  C    0.065651
     4  C    0.065654
     5  C    0.018195
     6  C   -0.019371
     7  H    0.009299
     8  H    0.012541
     9  H    0.012541
    10  H    0.009299
    11  O   -0.235829
    12  H    0.031595
    13  H    0.031596
 Sum of Mulliken charges =   0.00000
 Mulliken charges with hydrogens summed into heavy atoms:
               1
     1  C   -0.010072
     2  C    0.030741
     3  C    0.097247
     4  C    0.097249
     5  C    0.030736
     6  C   -0.010072
    11  O   -0.235829
 APT charges:
               1
     1  C   -0.505808
     2  C   -0.498784
     3  C   -0.408333
     4  C   -0.408333
     5  C   -0.498784
     6  C   -0.505803
     7  H    0.502538
     8  H    0.479825
     9  H    0.479826
    10  H    0.502542
    11  O   -0.061631
    12  H    0.461369
    13  H    0.461375
 Sum of APT charges =   0.00000
 APT charges with hydrogens summed into heavy atoms:
               1
     1  C   -0.003270
     2  C   -0.018958
     3  C    0.053042
     4  C    0.053036
     5  C   -0.018958
     6  C   -0.003261
    11  O   -0.061631
 Electronic spatial extent (au):  <R**2>=            581.8220
 Charge=              0.0000 electrons
 Dipole moment (field-independent basis, Debye):
    X=             -0.3152    Y=              0.0000    Z=             -1.5362  Tot=              1.5682
 Quadrupole moment (field-independent basis, Debye-Ang):
   XX=            -37.9615   YY=            -36.6550   ZZ=            -44.0365
   XY=              0.0001   XZ=             -2.6742   YZ=              0.0000
 Traceless Quadrupole moment (field-independent basis, Debye-Ang):
   XX=              1.5895   YY=              2.8960   ZZ=             -4.4855
   XY=              0.0001   XZ=             -2.6742   YZ=              0.0000
 Octapole moment (field-independent basis, Debye-Ang**2):
  XXX=              1.7572  YYY=              0.0002  ZZZ=              2.7703  XYY=              1.8534
  XXY=              0.0000  XXZ=             -1.6242  XZZ=              2.8392  YZZ=              0.0000
  YYZ=             -4.1604  XYZ=             -0.0001
 Hexadecapole moment (field-independent basis, Debye-Ang**3):
 XXXX=           -346.8194 YYYY=           -317.3212 ZZZZ=            -82.3283 XXXY=              0.0005
 XXXZ=             -7.5215 YYYX=              0.0001 YYYZ=              0.0001 ZZZX=              3.9324
 ZZZY=              0.0000 XXYY=           -106.2955 XXZZ=            -78.2240 YYZZ=            -68.8084
 XXYZ=              0.0001 YYXZ=              0.2612 ZZXY=              0.0000
 N-N= 2.796735677595D+02 E-N=-1.272928258839D+03  KE= 3.039478121583D+02
  Exact polarizability:   0.000   0.000   0.000   0.000   0.000   0.000
 Approx polarizability: 162.963   0.001 175.401 -14.846   0.000  64.536
 Calling FoFJK, ICntrl=    100547 FMM=F ISym2X=0 I1Cent= 0 IOpClX= 0 NMat=1 NMatS=1 NMatT=0.
 ***** Axes restored to original set *****
 -------------------------------------------------------------------
 Center     Atomic                   Forces (Hartrees/Bohr)
 Number     Number              X              Y              Z
 -------------------------------------------------------------------
      1        6           0.000946806   -0.000456149    0.001616634
      2        6           0.000447217   -0.001623264   -0.000314679
      3        6          -0.000189679    0.001325485   -0.002567956
      4        6          -0.000184946   -0.001318999   -0.002573751
      5        6           0.000452841    0.001616550   -0.000311493
      6        6           0.000935474    0.000458805    0.001613496
      7        1           0.005118031   -0.002711415    0.000701298
      8        1           0.000698674   -0.005347441   -0.002338409
      9        1           0.000696986    0.005348236   -0.002338732
     10        1           0.005118658    0.002711604    0.000701639
     11        8          -0.004248614   -0.000003471    0.012580321
     12        1          -0.004895596    0.002836948   -0.003383954
     13        1          -0.004895853   -0.002836890   -0.003384415
 -------------------------------------------------------------------
 Cartesian Forces:  Max     0.012580321 RMS     0.003322375
 FormGI is forming the generalized inverse of G from B-inverse, IUseBI=4.

 GradGradGradGradGradGradGradGradGradGradGradGradGradGradGradGradGradGrad
 Berny optimization.
 Internal  Forces:  Max     0.007988929 RMS     0.003393957
 Search for a saddle point.
 Step number   1 out of a maximum of   66
 All quantities printed in internal units (Hartrees-Bohrs-Radians)
 Swapping is turned off.
 Second derivative matrix not updated -- analytic derivatives used.
 ITU=  0
     Eigenvalues ---   -0.03899   0.01684   0.01703   0.01803   0.02309
     Eigenvalues ---    0.02361   0.02576   0.02608   0.03799   0.04404
     Eigenvalues ---    0.09436   0.10307   0.11003   0.11017   0.11661
     Eigenvalues ---    0.11751   0.14109   0.16183   0.17334   0.18717
     Eigenvalues ---    0.32484   0.33053   0.34836   0.35437   0.35569
     Eigenvalues ---    0.35659   0.35728   0.36015   0.39871   0.40773
     Eigenvalues ---    0.45688   0.45961   0.50964
 Eigenvectors required to have negative eigenvalues:
                          A19       D9        D15       D11       D16
   1                   -0.51086  -0.33417   0.33417  -0.32597   0.32596
                          D13       D19       R8        R4        R11
   1                    0.30847  -0.30847   0.14273   0.14273  -0.09913
 RFO step:  Lambda0=2.446472617D-04 Lambda=-1.55151063D-03.
 Linear search not attempted -- option 19 set.
 Iteration  1 RMS(Cart)=  0.01711862 RMS(Int)=  0.00012820
 Iteration  2 RMS(Cart)=  0.00011734 RMS(Int)=  0.00005680
 Iteration  3 RMS(Cart)=  0.00000001 RMS(Int)=  0.00005680
 Variable       Old X    -DE/DX   Delta X   Delta X   Delta X     New X
                                 (Linear)    (Quad)   (Total)
    R1        2.63840   0.00759   0.00000   0.02186   0.02187   2.66027
    R2        2.65960   0.00710   0.00000   0.00767   0.00768   2.66728
    R3        2.06740   0.00583   0.00000   0.01607   0.01607   2.08347
    R4        2.64672   0.00782   0.00000   0.00438   0.00438   2.65109
    R5        2.06774   0.00588   0.00000   0.01636   0.01636   2.08410
    R6        2.62231   0.00798   0.00000   0.01798   0.01797   2.64028
    R7        2.07307   0.00658   0.00000   0.01773   0.01773   2.09080
    R8        2.64673   0.00782   0.00000   0.00437   0.00436   2.65109
    R9        2.62229   0.00799   0.00000   0.01800   0.01799   2.64028
   R10        2.07307   0.00658   0.00000   0.01773   0.01773   2.09080
   R11        2.63842   0.00758   0.00000   0.02185   0.02185   2.66027
   R12        2.06774   0.00588   0.00000   0.01636   0.01636   2.08410
   R13        2.06740   0.00583   0.00000   0.01607   0.01607   2.08347
    A1        2.13531  -0.00036   0.00000   0.00065   0.00061   2.13592
    A2        2.07079   0.00020   0.00000  -0.00104  -0.00101   2.06978
    A3        2.05415   0.00009   0.00000   0.00024   0.00026   2.05441
    A4        2.12860   0.00012   0.00000   0.00243   0.00238   2.13097
    A5        2.08934  -0.00001   0.00000  -0.00077  -0.00074   2.08860
    A6        2.06050  -0.00010   0.00000  -0.00174  -0.00171   2.05879
    A7        2.08638   0.00009   0.00000   0.00169   0.00148   2.08786
    A8        2.13456  -0.00022   0.00000   0.00539   0.00528   2.13985
    A9        2.01209   0.00007   0.00000   0.00231   0.00218   2.01427
   A10        2.08639   0.00009   0.00000   0.00168   0.00147   2.08786
   A11        2.13455  -0.00022   0.00000   0.00540   0.00530   2.13985
   A12        2.01210   0.00007   0.00000   0.00231   0.00218   2.01427
   A13        2.12859   0.00012   0.00000   0.00244   0.00238   2.13097
   A14        2.06052  -0.00011   0.00000  -0.00176  -0.00173   2.05879
   A15        2.08932  -0.00001   0.00000  -0.00075  -0.00072   2.08860
   A16        2.13530  -0.00036   0.00000   0.00067   0.00062   2.13592
   A17        2.05416   0.00009   0.00000   0.00023   0.00025   2.05441
   A18        2.07080   0.00020   0.00000  -0.00104  -0.00102   2.06978
   A19        1.44942  -0.00161   0.00000   0.02483   0.02482   1.47424
    D1       -0.39303  -0.00057   0.00000  -0.01908  -0.01908  -0.41211
    D2        2.64194  -0.00050   0.00000  -0.01999  -0.02000   2.62194
    D3        2.98242  -0.00025   0.00000  -0.01835  -0.01835   2.96407
    D4       -0.26580  -0.00018   0.00000  -0.01926  -0.01927  -0.28507
    D5        0.00001   0.00000   0.00000  -0.00001  -0.00001   0.00000
    D6       -2.90984   0.00030   0.00000   0.00087   0.00088  -2.90896
    D7        2.90986  -0.00030   0.00000  -0.00089  -0.00090   2.90896
    D8        0.00001   0.00000   0.00000  -0.00001  -0.00001   0.00000
    D9       -0.58092  -0.00035   0.00000   0.03331   0.03332  -0.54760
   D10        2.91150  -0.00020   0.00000   0.00109   0.00105   2.91255
   D11        2.66561  -0.00042   0.00000   0.03416   0.03418   2.69979
   D12       -0.12515  -0.00027   0.00000   0.00194   0.00190  -0.12325
   D13        1.65087   0.00040   0.00000  -0.01980  -0.01985   1.63103
   D14       -1.81779   0.00019   0.00000   0.01086   0.01080  -1.80698
   D15        0.58092   0.00035   0.00000  -0.03331  -0.03332   0.54760
   D16       -2.66563   0.00042   0.00000  -0.03415  -0.03416  -2.69979
   D17       -2.91149   0.00019   0.00000  -0.00110  -0.00106  -2.91255
   D18        0.12515   0.00027   0.00000  -0.00194  -0.00190   0.12325
   D19       -1.65087  -0.00040   0.00000   0.01980   0.01985  -1.63103
   D20        1.81778  -0.00019   0.00000  -0.01085  -0.01080   1.80698
   D21        0.39302   0.00057   0.00000   0.01908   0.01908   0.41211
   D22       -2.98242   0.00025   0.00000   0.01836   0.01835  -2.96407
   D23       -2.64193   0.00050   0.00000   0.01998   0.02000  -2.62194
   D24        0.26581   0.00018   0.00000   0.01926   0.01927   0.28507
         Item               Value     Threshold  Converged?
 Maximum Force            0.007989     0.000450     NO 
 RMS     Force            0.003394     0.000300     NO 
 Maximum Displacement     0.045302     0.001800     NO 
 RMS     Displacement     0.017097     0.001200     NO 
 Predicted change in Energy=-6.576204D-04
 GradGradGradGradGradGradGradGradGradGradGradGradGradGradGradGradGradGrad

                          Input orientation:                          
 ---------------------------------------------------------------------
 Center     Atomic      Atomic             Coordinates (Angstroms)
 Number     Number       Type             X           Y           Z
 ---------------------------------------------------------------------
      1          6           0        1.419842   -0.705745    0.168917
      2          6           0        0.305660   -1.459614   -0.245874
      3          6           0       -0.996902   -0.939114   -0.222850
      4          6           0       -0.996887    0.939129   -0.222852
      5          6           0        0.305684    1.459607   -0.245877
      6          6           0        1.419854    0.705720    0.168916
      7          1           0        2.388461   -1.218402    0.289412
      8          1           0        0.457081   -2.454405   -0.697273
      9          1           0        0.457121    2.454394   -0.697279
     10          1           0        2.388481    1.218361    0.289409
     11          8           0       -1.348304    0.000011    0.750116
     12          1           0       -1.844729    1.431378   -0.735674
     13          1           0       -1.844752   -1.431351   -0.735671
 ---------------------------------------------------------------------
                    Distance matrix (angstroms):
                    1          2          3          4          5
     1  C    0.000000
     2  C    1.407754   0.000000
     3  C    2.459389   1.402896   0.000000
     4  C    2.949520   2.729675   1.878243   0.000000
     5  C    2.470253   2.919221   2.729675   1.402897   0.000000
     6  C    1.411465   2.470253   2.949521   2.459390   1.407755
     7  H    1.102524   2.163972   3.435273   4.046966   3.434563
     8  H    2.176007   1.102859   2.152962   3.722253   3.942863
     9  H    3.415202   3.942862   3.722253   2.152963   1.102859
    10  H    2.157537   3.434563   4.046966   3.435273   2.163972
    11  O    2.915222   2.420351   1.397177   1.397176   2.420351
    12  H    4.005371   3.636194   2.569247   1.106405   2.205668
    13  H    3.464442   2.205668   1.106405   2.569248   3.636195
                    6          7          8          9         10
     6  C    0.000000
     7  H    2.157536   0.000000
     8  H    3.415202   2.496293   0.000000
     9  H    2.176008   4.265333   4.908798   0.000000
    10  H    1.102524   2.436763   4.265332   2.496294   0.000000
    11  O    2.915222   3.957296   3.373204   3.373204   3.957297
    12  H    3.464443   5.098238   4.516537   2.519235   4.360761
    13  H    4.005372   4.360761   2.519235   4.516537   5.098238
                   11         12         13
    11  O    0.000000
    12  H    2.121985   0.000000
    13  H    2.121985   2.862729   0.000000
 Stoichiometry    C6H6O
 Framework group  C1[X(C6H6O)]
 Deg. of freedom    33
 Full point group                 C1      NOp   1
 Largest Abelian subgroup         C1      NOp   1
 Largest concise Abelian subgroup C1      NOp   1
                         Standard orientation:                         
 ---------------------------------------------------------------------
 Center     Atomic      Atomic             Coordinates (Angstroms)
 Number     Number       Type             X           Y           Z
 ---------------------------------------------------------------------
      1          6           0       -1.420673    0.705732    0.166595
      2          6           0       -0.306498    1.459611   -0.248197
      3          6           0        0.996069    0.939122   -0.225173
      4          6           0        0.996069   -0.939121   -0.225174
      5          6           0       -0.306497   -1.459610   -0.248200
      6          6           0       -1.420674   -0.705733    0.166593
      7          1           0       -2.389296    1.218381    0.287089
      8          1           0       -0.457926    2.454400   -0.699595
      9          1           0       -0.457926   -2.454398   -0.699601
     10          1           0       -2.389297   -1.218382    0.287086
     11          8           0        1.347479   -0.000001    0.747793
     12          1           0        1.843915   -1.431363   -0.737997
     13          1           0        1.843915    1.431366   -0.737993
 ---------------------------------------------------------------------
 Rotational constants (GHZ):      4.2860585      3.6945734      2.2370982
 Standard basis: SVP (5D, 7F)
 There are   135 symmetry adapted cartesian basis functions of A   symmetry.
 There are   128 symmetry adapted basis functions of A   symmetry.
   128 basis functions,   217 primitive gaussians,   135 cartesian basis functions
    25 alpha electrons       25 beta electrons
       nuclear repulsion energy       277.8416754907 Hartrees.
 NAtoms=   13 NActive=   13 NUniq=   13 SFac= 1.00D+00 NAtFMM=   60 NAOKFM=F Big=F
 Integral buffers will be    131072 words long.
 Raffenetti 2 integral format.
 Two-electron integral symmetry is turned on.
 One-electron integrals computed using PRISM.
 NBasis=   128 RedAO= T EigKep=  5.62D-04  NBF=   128
 NBsUse=   128 1.00D-06 EigRej= -1.00D+00 NBFU=   128
 Initial guess from the checkpoint file:  "/tmp/Gau-7251.chk"
 B after Tr=     0.000000    0.000000    0.000000
         Rot=    1.000000   -0.000001    0.000299   -0.000005 Ang=  -0.03 deg.
 ExpMin= 1.22D-01 ExpMax= 2.27D+03 ExpMxC= 3.41D+02 IAcc=1 IRadAn=         1 AccDes= 0.00D+00
 Harris functional with IExCor=  404 and IRadAn=       1 diagonalized for initial guess.
 HarFok:  IExCor=  404 AccDes= 0.00D+00 IRadAn=         1 IDoV= 1 UseB2=F ITyADJ=14
 ICtDFT=  3500011 ScaDFX=  1.000000  1.000000  1.000000  1.000000
 FoFCou: FMM=F IPFlag=           0 FMFlag=      100000 FMFlg1=           0
         NFxFlg=           0 DoJE=T BraDBF=F KetDBF=T FulRan=T
         wScrn=  0.000000 ICntrl=     500 IOpCl=  0 I1Cent=   200000004 NGrid=           0
         NMat0=    1 NMatS0=      1 NMatT0=    0 NMatD0=    1 NMtDS0=    0 NMtDT0=    0
 Petite list used in FoFCou.
 Requested convergence on RMS density matrix=1.00D-08 within 128 cycles.
 Requested convergence on MAX density matrix=1.00D-06.
 Requested convergence on             energy=1.00D-06.
 No special actions if energy rises.
 Integral accuracy reduced to 1.0D-05 until final iterations.
 Initial convergence to 1.0D-05 achieved.  Increase integral accuracy.
 SCF Done:  E(RB-P86) =  -307.167004178     A.U. after   13 cycles
            NFock= 13  Conv=0.31D-08     -V/T= 2.0112
 Calling FoFJK, ICntrl=      2527 FMM=F ISym2X=0 I1Cent= 0 IOpClX= 0 NMat=1 NMatS=1 NMatT=0.
 ***** Axes restored to original set *****
 -------------------------------------------------------------------
 Center     Atomic                   Forces (Hartrees/Bohr)
 Number     Number              X              Y              Z
 -------------------------------------------------------------------
      1        6           0.000119569    0.000162397    0.000028618
      2        6          -0.000145010   -0.000069000   -0.000044333
      3        6           0.000078874   -0.000174011   -0.000087656
      4        6           0.000078922    0.000174314   -0.000088045
      5        6          -0.000144542    0.000068640   -0.000044116
      6        6           0.000118967   -0.000162148    0.000028422
      7        1           0.000131465   -0.000083204    0.000063756
      8        1           0.000024668   -0.000140470   -0.000080647
      9        1           0.000024643    0.000140512   -0.000080670
     10        1           0.000131509    0.000083216    0.000063774
     11        8          -0.000141180   -0.000000257    0.000455767
     12        1          -0.000138927    0.000086404   -0.000107417
     13        1          -0.000138959   -0.000086394   -0.000107454
 -------------------------------------------------------------------
 Cartesian Forces:  Max     0.000455767 RMS     0.000128216

 GradGradGradGradGradGradGradGradGradGradGradGradGradGradGradGradGradGrad
 Berny optimization.
 FormGI is forming the generalized inverse of G from B-inverse, IUseBI=4.
 Internal  Forces:  Max     0.000366970 RMS     0.000113681
 Search for a saddle point.
 Step number   2 out of a maximum of   66
 All quantities printed in internal units (Hartrees-Bohrs-Radians)
 Swapping is turned off.
 Update second derivatives using D2CorX and points    1    2
 ITU=  0  0
     Eigenvalues ---   -0.03881   0.01703   0.01706   0.01803   0.02306
     Eigenvalues ---    0.02361   0.02576   0.02608   0.03798   0.04465
     Eigenvalues ---    0.09442   0.10307   0.11003   0.11015   0.11661
     Eigenvalues ---    0.11750   0.14109   0.16180   0.17331   0.18719
     Eigenvalues ---    0.32483   0.32979   0.34744   0.35428   0.35437
     Eigenvalues ---    0.35657   0.35728   0.36014   0.39850   0.40773
     Eigenvalues ---    0.45683   0.45961   0.50556
 Eigenvectors required to have negative eigenvalues:
                          A19       D9        D15       D11       D16
   1                   -0.51317  -0.33304   0.33304  -0.32352   0.32352
                          D13       D19       R8        R4        R11
   1                    0.31081  -0.31081   0.14303   0.14303  -0.10262
 RFO step:  Lambda0=2.583091319D-07 Lambda=-1.93378450D-06.
 Linear search not attempted -- option 19 set.
 Iteration  1 RMS(Cart)=  0.00064265 RMS(Int)=  0.00000039
 Iteration  2 RMS(Cart)=  0.00000060 RMS(Int)=  0.00000009
 Variable       Old X    -DE/DX   Delta X   Delta X   Delta X     New X
                                 (Linear)    (Quad)   (Total)
    R1        2.66027   0.00033   0.00000   0.00047   0.00047   2.66074
    R2        2.66728   0.00011   0.00000   0.00027   0.00027   2.66756
    R3        2.08347   0.00016   0.00000   0.00045   0.00045   2.08391
    R4        2.65109   0.00013   0.00000   0.00056   0.00056   2.65165
    R5        2.08410   0.00016   0.00000   0.00045   0.00045   2.08455
    R6        2.64028   0.00037   0.00000   0.00098   0.00098   2.64127
    R7        2.09080   0.00019   0.00000   0.00053   0.00053   2.09133
    R8        2.65109   0.00013   0.00000   0.00056   0.00056   2.65165
    R9        2.64028   0.00037   0.00000   0.00099   0.00099   2.64127
   R10        2.09080   0.00019   0.00000   0.00053   0.00053   2.09133
   R11        2.66027   0.00033   0.00000   0.00047   0.00047   2.66074
   R12        2.08410   0.00016   0.00000   0.00045   0.00045   2.08455
   R13        2.08347   0.00016   0.00000   0.00045   0.00045   2.08391
    A1        2.13592   0.00003   0.00000  -0.00013  -0.00013   2.13579
    A2        2.06978  -0.00001   0.00000   0.00010   0.00010   2.06988
    A3        2.05441  -0.00001   0.00000   0.00024   0.00024   2.05464
    A4        2.13097  -0.00001   0.00000  -0.00027  -0.00027   2.13071
    A5        2.08860   0.00000   0.00000   0.00012   0.00012   2.08872
    A6        2.05879   0.00000   0.00000   0.00016   0.00016   2.05896
    A7        2.08786  -0.00002   0.00000  -0.00020  -0.00020   2.08767
    A8        2.13985   0.00000   0.00000  -0.00006  -0.00006   2.13979
    A9        2.01427   0.00003   0.00000   0.00000   0.00000   2.01427
   A10        2.08786  -0.00002   0.00000  -0.00020  -0.00020   2.08767
   A11        2.13985   0.00000   0.00000  -0.00006  -0.00006   2.13979
   A12        2.01427   0.00003   0.00000   0.00000   0.00000   2.01427
   A13        2.13097  -0.00001   0.00000  -0.00027  -0.00027   2.13071
   A14        2.05879   0.00000   0.00000   0.00016   0.00016   2.05896
   A15        2.08860   0.00000   0.00000   0.00012   0.00012   2.08872
   A16        2.13592   0.00003   0.00000  -0.00013  -0.00013   2.13579
   A17        2.05441  -0.00001   0.00000   0.00024   0.00024   2.05464
   A18        2.06978  -0.00001   0.00000   0.00010   0.00010   2.06988
   A19        1.47424   0.00005   0.00000  -0.00161  -0.00161   1.47263
    D1       -0.41211  -0.00001   0.00000  -0.00014  -0.00014  -0.41225
    D2        2.62194   0.00000   0.00000   0.00003   0.00003   2.62196
    D3        2.96407  -0.00003   0.00000  -0.00121  -0.00121   2.96286
    D4       -0.28507  -0.00002   0.00000  -0.00105  -0.00105  -0.28612
    D5        0.00000   0.00000   0.00000   0.00000   0.00000   0.00000
    D6       -2.90896  -0.00003   0.00000  -0.00105  -0.00105  -2.91001
    D7        2.90896   0.00003   0.00000   0.00105   0.00105   2.91001
    D8        0.00000   0.00000   0.00000   0.00000   0.00000   0.00000
    D9       -0.54760   0.00003   0.00000  -0.00084  -0.00084  -0.54844
   D10        2.91255   0.00000   0.00000   0.00011   0.00011   2.91266
   D11        2.69979   0.00002   0.00000  -0.00100  -0.00100   2.69879
   D12       -0.12325  -0.00001   0.00000  -0.00005  -0.00005  -0.12330
   D13        1.63103  -0.00002   0.00000   0.00106   0.00105   1.63208
   D14       -1.80698   0.00000   0.00000   0.00016   0.00016  -1.80682
   D15        0.54760  -0.00003   0.00000   0.00084   0.00084   0.54844
   D16       -2.69979  -0.00002   0.00000   0.00100   0.00100  -2.69879
   D17       -2.91255   0.00000   0.00000  -0.00011  -0.00011  -2.91266
   D18        0.12325   0.00001   0.00000   0.00005   0.00005   0.12330
   D19       -1.63103   0.00002   0.00000  -0.00105  -0.00105  -1.63208
   D20        1.80698   0.00000   0.00000  -0.00016  -0.00016   1.80682
   D21        0.41211   0.00001   0.00000   0.00014   0.00014   0.41225
   D22       -2.96407   0.00003   0.00000   0.00121   0.00121  -2.96286
   D23       -2.62194   0.00000   0.00000  -0.00003  -0.00003  -2.62196
   D24        0.28507   0.00002   0.00000   0.00105   0.00105   0.28612
         Item               Value     Threshold  Converged?
 Maximum Force            0.000367     0.000450     YES
 RMS     Force            0.000114     0.000300     YES
 Maximum Displacement     0.002292     0.001800     NO 
 RMS     Displacement     0.000643     0.001200     YES
 Predicted change in Energy=-8.377369D-07
 GradGradGradGradGradGradGradGradGradGradGradGradGradGradGradGradGradGrad

                          Input orientation:                          
 ---------------------------------------------------------------------
 Center     Atomic      Atomic             Coordinates (Angstroms)
 Number     Number       Type             X           Y           Z
 ---------------------------------------------------------------------
      1          6           0        1.420157   -0.705817    0.168661
      2          6           0        0.305697   -1.459667   -0.246262
      3          6           0       -0.996967   -0.938633   -0.222950
      4          6           0       -0.996951    0.938647   -0.222952
      5          6           0        0.305721    1.459660   -0.246266
      6          6           0        1.420169    0.705793    0.168659
      7          1           0        2.388733   -1.218817    0.290203
      8          1           0        0.456910   -2.454693   -0.697790
      9          1           0        0.456950    2.454683   -0.697796
     10          1           0        2.388753    1.218776    0.290200
     11          8           0       -1.348089    0.000011    0.751329
     12          1           0       -1.845224    1.430750   -0.735809
     13          1           0       -1.845248   -1.430723   -0.735806
 ---------------------------------------------------------------------
                    Distance matrix (angstroms):
                    1          2          3          4          5
     1  C    0.000000
     2  C    1.408003   0.000000
     3  C    2.459685   1.403194   0.000000
     4  C    2.949583   2.729349   1.877280   0.000000
     5  C    2.470511   2.919327   2.729349   1.403194   0.000000
     6  C    1.411610   2.470511   2.949583   2.459685   1.408003
     7  H    1.102760   2.164450   3.435810   4.047325   3.435255
     8  H    2.176500   1.103096   2.153525   3.722089   3.943209
     9  H    3.415739   3.943209   3.722089   2.153525   1.103096
    10  H    2.158011   3.435255   4.047325   3.435810   2.164450
    11  O    2.915627   2.420921   1.397698   1.397698   2.420921
    12  H    4.005708   3.636018   2.568373   1.106686   2.206140
    13  H    3.465027   2.206140   1.106686   2.568373   3.636018
                    6          7          8          9         10
     6  C    0.000000
     7  H    2.158011   0.000000
     8  H    3.415739   2.497091   0.000000
     9  H    2.176500   4.266442   4.909376   0.000000
    10  H    1.102760   2.437593   4.266442   2.497091   0.000000
    11  O    2.915627   3.957527   3.373951   3.373950   3.957527
    12  H    3.465028   5.098951   4.516408   2.519899   4.361673
    13  H    4.005708   4.361673   2.519899   4.516408   5.098951
                   11         12         13
    11  O    0.000000
    12  H    2.122672   0.000000
    13  H    2.122672   2.861473   0.000000
 Stoichiometry    C6H6O
 Framework group  C1[X(C6H6O)]
 Deg. of freedom    33
 Full point group                 C1      NOp   1
 Largest Abelian subgroup         C1      NOp   1
 Largest concise Abelian subgroup C1      NOp   1
                         Standard orientation:                         
 ---------------------------------------------------------------------
 Center     Atomic      Atomic             Coordinates (Angstroms)
 Number     Number       Type             X           Y           Z
 ---------------------------------------------------------------------
      1          6           0       -1.420901    0.705805    0.166317
      2          6           0       -0.306447    1.459664   -0.248606
      3          6           0        0.996221    0.938640   -0.225293
      4          6           0        0.996221   -0.938640   -0.225296
      5          6           0       -0.306446   -1.459663   -0.248609
      6          6           0       -1.420901   -0.705805    0.166316
      7          1           0       -2.389481    1.218796    0.287859
      8          1           0       -0.457668    2.454689   -0.700134
      9          1           0       -0.457667   -2.454687   -0.700139
     10          1           0       -2.389481   -1.218797    0.287857
     11          8           0        1.347351   -0.000001    0.748986
     12          1           0        1.844498   -1.430736   -0.738153
     13          1           0        1.844498    1.430738   -0.738149
 ---------------------------------------------------------------------
 Rotational constants (GHZ):      4.2853503      3.6930182      2.2370028
 Standard basis: SVP (5D, 7F)
 There are   135 symmetry adapted cartesian basis functions of A   symmetry.
 There are   128 symmetry adapted basis functions of A   symmetry.
   128 basis functions,   217 primitive gaussians,   135 cartesian basis functions
    25 alpha electrons       25 beta electrons
       nuclear repulsion energy       277.8014188818 Hartrees.
 NAtoms=   13 NActive=   13 NUniq=   13 SFac= 1.00D+00 NAtFMM=   60 NAOKFM=F Big=F
 Integral buffers will be    131072 words long.
 Raffenetti 2 integral format.
 Two-electron integral symmetry is turned on.
 One-electron integrals computed using PRISM.
 NBasis=   128 RedAO= T EigKep=  5.63D-04  NBF=   128
 NBsUse=   128 1.00D-06 EigRej= -1.00D+00 NBFU=   128
 Initial guess from the checkpoint file:  "/tmp/Gau-7251.chk"
 B after Tr=     0.000000    0.000000    0.000000
         Rot=    1.000000    0.000000    0.000108    0.000000 Ang=  -0.01 deg.
 Requested convergence on RMS density matrix=1.00D-08 within 128 cycles.
 Requested convergence on MAX density matrix=1.00D-06.
 Requested convergence on             energy=1.00D-06.
 No special actions if energy rises.
 SCF Done:  E(RB-P86) =  -307.167005146     A.U. after    8 cycles
            NFock=  8  Conv=0.80D-08     -V/T= 2.0113
 Calling FoFJK, ICntrl=      2527 FMM=F ISym2X=0 I1Cent= 0 IOpClX= 0 NMat=1 NMatS=1 NMatT=0.
 ***** Axes restored to original set *****
 -------------------------------------------------------------------
 Center     Atomic                   Forces (Hartrees/Bohr)
 Number     Number              X              Y              Z
 -------------------------------------------------------------------
      1        6           0.000003802    0.000006561    0.000005294
      2        6          -0.000011144   -0.000001213   -0.000000538
      3        6           0.000011186   -0.000005387   -0.000007044
      4        6           0.000011197    0.000005418   -0.000007077
      5        6          -0.000011117    0.000001186   -0.000000521
      6        6           0.000003765   -0.000006541    0.000005278
      7        1           0.000004632   -0.000001887    0.000001470
      8        1           0.000000660   -0.000005120   -0.000002075
      9        1           0.000000661    0.000005123   -0.000002077
     10        1           0.000004635    0.000001889    0.000001468
     11        8          -0.000007504   -0.000000029    0.000018144
     12        1          -0.000005385    0.000001877   -0.000006161
     13        1          -0.000005389   -0.000001877   -0.000006161
 -------------------------------------------------------------------
 Cartesian Forces:  Max     0.000018144 RMS     0.000006146

 GradGradGradGradGradGradGradGradGradGradGradGradGradGradGradGradGradGrad
 Berny optimization.
 FormGI is forming the generalized inverse of G from B-inverse, IUseBI=4.
 Internal  Forces:  Max     0.000012335 RMS     0.000003905
 Search for a saddle point.
 Step number   3 out of a maximum of   66
 All quantities printed in internal units (Hartrees-Bohrs-Radians)
 Swapping is turned off.
 Update second derivatives using D2CorX and points    1    2    3
 ITU=  0  0  0
     Eigenvalues ---   -0.03815   0.01703   0.01719   0.01803   0.02361
     Eigenvalues ---    0.02384   0.02608   0.02651   0.03798   0.04458
     Eigenvalues ---    0.09441   0.10307   0.11004   0.11015   0.11661
     Eigenvalues ---    0.11748   0.14107   0.16181   0.17331   0.18719
     Eigenvalues ---    0.32483   0.32811   0.34621   0.35366   0.35437
     Eigenvalues ---    0.35657   0.35728   0.36014   0.39854   0.40773
     Eigenvalues ---    0.45678   0.45961   0.50400
 Eigenvectors required to have negative eigenvalues:
                          A19       D9        D15       D11       D16
   1                   -0.51359  -0.33349   0.33349  -0.32220   0.32219
                          D13       D19       R8        R4        R11
   1                    0.31017  -0.31016   0.14170   0.14169  -0.09993
 RFO step:  Lambda0=1.896203333D-11 Lambda= 0.00000000D+00.
 Linear search not attempted -- option 19 set.
 Iteration  1 RMS(Cart)=  0.00001774 RMS(Int)=  0.00000000
 Iteration  2 RMS(Cart)=  0.00000000 RMS(Int)=  0.00000000
 Variable       Old X    -DE/DX   Delta X   Delta X   Delta X     New X
                                 (Linear)    (Quad)   (Total)
    R1        2.66074   0.00001   0.00000   0.00003   0.00003   2.66077
    R2        2.66756   0.00000   0.00000   0.00000   0.00000   2.66755
    R3        2.08391   0.00001   0.00000   0.00001   0.00001   2.08393
    R4        2.65165   0.00000   0.00000  -0.00001  -0.00001   2.65164
    R5        2.08455   0.00001   0.00000   0.00002   0.00002   2.08456
    R6        2.64127   0.00001   0.00000   0.00004   0.00004   2.64130
    R7        2.09133   0.00001   0.00000   0.00002   0.00002   2.09135
    R8        2.65165   0.00000   0.00000  -0.00001  -0.00001   2.65164
    R9        2.64127   0.00001   0.00000   0.00004   0.00004   2.64130
   R10        2.09133   0.00001   0.00000   0.00002   0.00002   2.09135
   R11        2.66074   0.00001   0.00000   0.00003   0.00003   2.66077
   R12        2.08455   0.00001   0.00000   0.00002   0.00002   2.08456
   R13        2.08391   0.00001   0.00000   0.00002   0.00002   2.08393
    A1        2.13579   0.00000   0.00000   0.00000   0.00000   2.13579
    A2        2.06988   0.00000   0.00000   0.00000   0.00000   2.06988
    A3        2.05464   0.00000   0.00000   0.00000   0.00000   2.05464
    A4        2.13071   0.00000   0.00000   0.00000   0.00000   2.13070
    A5        2.08872   0.00000   0.00000   0.00000   0.00000   2.08872
    A6        2.05896   0.00000   0.00000   0.00000   0.00000   2.05896
    A7        2.08767   0.00000   0.00000   0.00000   0.00000   2.08767
    A8        2.13979   0.00000   0.00000   0.00002   0.00002   2.13980
    A9        2.01427   0.00000   0.00000  -0.00001  -0.00001   2.01427
   A10        2.08767   0.00000   0.00000   0.00000   0.00000   2.08767
   A11        2.13979   0.00000   0.00000   0.00002   0.00002   2.13980
   A12        2.01427   0.00000   0.00000  -0.00001  -0.00001   2.01427
   A13        2.13071   0.00000   0.00000   0.00000   0.00000   2.13070
   A14        2.05896   0.00000   0.00000   0.00000   0.00000   2.05896
   A15        2.08872   0.00000   0.00000   0.00000   0.00000   2.08872
   A16        2.13579   0.00000   0.00000   0.00000   0.00000   2.13579
   A17        2.05464   0.00000   0.00000   0.00000   0.00000   2.05464
   A18        2.06988   0.00000   0.00000   0.00000   0.00000   2.06988
   A19        1.47263   0.00000   0.00000   0.00000   0.00000   1.47262
    D1       -0.41225   0.00000   0.00000   0.00000   0.00000  -0.41225
    D2        2.62196   0.00000   0.00000  -0.00003  -0.00003   2.62193
    D3        2.96286   0.00000   0.00000   0.00002   0.00002   2.96288
    D4       -0.28612   0.00000   0.00000   0.00000   0.00000  -0.28612
    D5        0.00000   0.00000   0.00000   0.00000   0.00000   0.00000
    D6       -2.91001   0.00000   0.00000   0.00002   0.00002  -2.90999
    D7        2.91001   0.00000   0.00000  -0.00002  -0.00002   2.90999
    D8        0.00000   0.00000   0.00000   0.00000   0.00000   0.00000
    D9       -0.54844   0.00000   0.00000   0.00000   0.00000  -0.54844
   D10        2.91266   0.00000   0.00000  -0.00004  -0.00004   2.91262
   D11        2.69879   0.00000   0.00000   0.00002   0.00002   2.69881
   D12       -0.12330   0.00000   0.00000  -0.00001  -0.00001  -0.12331
   D13        1.63208   0.00000   0.00000   0.00000   0.00000   1.63208
   D14       -1.80682   0.00000   0.00000   0.00004   0.00004  -1.80678
   D15        0.54844   0.00000   0.00000   0.00000   0.00000   0.54844
   D16       -2.69879   0.00000   0.00000  -0.00002  -0.00002  -2.69881
   D17       -2.91266   0.00000   0.00000   0.00004   0.00004  -2.91262
   D18        0.12330   0.00000   0.00000   0.00001   0.00001   0.12331
   D19       -1.63208   0.00000   0.00000   0.00000   0.00000  -1.63208
   D20        1.80682   0.00000   0.00000  -0.00004  -0.00004   1.80678
   D21        0.41225   0.00000   0.00000   0.00000   0.00000   0.41225
   D22       -2.96286   0.00000   0.00000  -0.00002  -0.00002  -2.96288
   D23       -2.62196   0.00000   0.00000   0.00003   0.00003  -2.62193
   D24        0.28612   0.00000   0.00000   0.00000   0.00000   0.28612
         Item               Value     Threshold  Converged?
 Maximum Force            0.000012     0.000450     YES
 RMS     Force            0.000004     0.000300     YES
 Maximum Displacement     0.000044     0.001800     YES
 RMS     Displacement     0.000018     0.001200     YES
 Predicted change in Energy=-1.341497D-09
 Optimization completed.
    -- Stationary point found.
                           ----------------------------
                           !   Optimized Parameters   !
                           ! (Angstroms and Degrees)  !
 --------------------------                            --------------------------
 ! Name  Definition              Value          Derivative Info.                !
 --------------------------------------------------------------------------------
 ! R1    R(1,2)                  1.408          -DE/DX =    0.0                 !
 ! R2    R(1,6)                  1.4116         -DE/DX =    0.0                 !
 ! R3    R(1,7)                  1.1028         -DE/DX =    0.0                 !
 ! R4    R(2,3)                  1.4032         -DE/DX =    0.0                 !
 ! R5    R(2,8)                  1.1031         -DE/DX =    0.0                 !
 ! R6    R(3,11)                 1.3977         -DE/DX =    0.0                 !
 ! R7    R(3,13)                 1.1067         -DE/DX =    0.0                 !
 ! R8    R(4,5)                  1.4032         -DE/DX =    0.0                 !
 ! R9    R(4,11)                 1.3977         -DE/DX =    0.0                 !
 ! R10   R(4,12)                 1.1067         -DE/DX =    0.0                 !
 ! R11   R(5,6)                  1.408          -DE/DX =    0.0                 !
 ! R12   R(5,9)                  1.1031         -DE/DX =    0.0                 !
 ! R13   R(6,10)                 1.1028         -DE/DX =    0.0                 !
 ! A1    A(2,1,6)              122.3717         -DE/DX =    0.0                 !
 ! A2    A(2,1,7)              118.5952         -DE/DX =    0.0                 !
 ! A3    A(6,1,7)              117.7224         -DE/DX =    0.0                 !
 ! A4    A(1,2,3)              122.0804         -DE/DX =    0.0                 !
 ! A5    A(1,2,8)              119.6746         -DE/DX =    0.0                 !
 ! A6    A(3,2,8)              117.9695         -DE/DX =    0.0                 !
 ! A7    A(2,3,11)             119.6146         -DE/DX =    0.0                 !
 ! A8    A(2,3,13)             122.6008         -DE/DX =    0.0                 !
 ! A9    A(11,3,13)            115.4094         -DE/DX =    0.0                 !
 ! A10   A(5,4,11)             119.6146         -DE/DX =    0.0                 !
 ! A11   A(5,4,12)             122.6008         -DE/DX =    0.0                 !
 ! A12   A(11,4,12)            115.4094         -DE/DX =    0.0                 !
 ! A13   A(4,5,6)              122.0804         -DE/DX =    0.0                 !
 ! A14   A(4,5,9)              117.9695         -DE/DX =    0.0                 !
 ! A15   A(6,5,9)              119.6746         -DE/DX =    0.0                 !
 ! A16   A(1,6,5)              122.3717         -DE/DX =    0.0                 !
 ! A17   A(1,6,10)             117.7224         -DE/DX =    0.0                 !
 ! A18   A(5,6,10)             118.5952         -DE/DX =    0.0                 !
 ! A19   A(3,11,4)              84.3754         -DE/DX =    0.0                 !
 ! D1    D(6,1,2,3)            -23.6199         -DE/DX =    0.0                 !
 ! D2    D(6,1,2,8)            150.2273         -DE/DX =    0.0                 !
 ! D3    D(7,1,2,3)            169.7593         -DE/DX =    0.0                 !
 ! D4    D(7,1,2,8)            -16.3935         -DE/DX =    0.0                 !
 ! D5    D(2,1,6,5)              0.0            -DE/DX =    0.0                 !
 ! D6    D(2,1,6,10)          -166.7315         -DE/DX =    0.0                 !
 ! D7    D(7,1,6,5)            166.7315         -DE/DX =    0.0                 !
 ! D8    D(7,1,6,10)             0.0            -DE/DX =    0.0                 !
 ! D9    D(1,2,3,11)           -31.4232         -DE/DX =    0.0                 !
 ! D10   D(1,2,3,13)           166.8831         -DE/DX =    0.0                 !
 ! D11   D(8,2,3,11)           154.6293         -DE/DX =    0.0                 !
 ! D12   D(8,2,3,13)            -7.0645         -DE/DX =    0.0                 !
 ! D13   D(2,3,11,4)            93.5113         -DE/DX =    0.0                 !
 ! D14   D(13,3,11,4)         -103.5232         -DE/DX =    0.0                 !
 ! D15   D(11,4,5,6)            31.4232         -DE/DX =    0.0                 !
 ! D16   D(11,4,5,9)          -154.6293         -DE/DX =    0.0                 !
 ! D17   D(12,4,5,6)          -166.8831         -DE/DX =    0.0                 !
 ! D18   D(12,4,5,9)             7.0645         -DE/DX =    0.0                 !
 ! D19   D(5,4,11,3)           -93.5113         -DE/DX =    0.0                 !
 ! D20   D(12,4,11,3)          103.5232         -DE/DX =    0.0                 !
 ! D21   D(4,5,6,1)             23.6199         -DE/DX =    0.0                 !
 ! D22   D(4,5,6,10)          -169.7593         -DE/DX =    0.0                 !
 ! D23   D(9,5,6,1)           -150.2273         -DE/DX =    0.0                 !
 ! D24   D(9,5,6,10)            16.3935         -DE/DX =    0.0                 !
 --------------------------------------------------------------------------------
 GradGradGradGradGradGradGradGradGradGradGradGradGradGradGradGradGradGrad

                          Input orientation:                          
 ---------------------------------------------------------------------
 Center     Atomic      Atomic             Coordinates (Angstroms)
 Number     Number       Type             X           Y           Z
 ---------------------------------------------------------------------
      1          6           0        1.420157   -0.705817    0.168661
      2          6           0        0.305697   -1.459667   -0.246262
      3          6           0       -0.996967   -0.938633   -0.222950
      4          6           0       -0.996951    0.938647   -0.222952
      5          6           0        0.305721    1.459660   -0.246266
      6          6           0        1.420169    0.705793    0.168659
      7          1           0        2.388733   -1.218817    0.290203
      8          1           0        0.456910   -2.454693   -0.697790
      9          1           0        0.456950    2.454683   -0.697796
     10          1           0        2.388753    1.218776    0.290200
     11          8           0       -1.348089    0.000011    0.751329
     12          1           0       -1.845224    1.430750   -0.735809
     13          1           0       -1.845248   -1.430723   -0.735806
 ---------------------------------------------------------------------
                    Distance matrix (angstroms):
                    1          2          3          4          5
     1  C    0.000000
     2  C    1.408003   0.000000
     3  C    2.459685   1.403194   0.000000
     4  C    2.949583   2.729349   1.877280   0.000000
     5  C    2.470511   2.919327   2.729349   1.403194   0.000000
     6  C    1.411610   2.470511   2.949583   2.459685   1.408003
     7  H    1.102760   2.164450   3.435810   4.047325   3.435255
     8  H    2.176500   1.103096   2.153525   3.722089   3.943209
     9  H    3.415739   3.943209   3.722089   2.153525   1.103096
    10  H    2.158011   3.435255   4.047325   3.435810   2.164450
    11  O    2.915627   2.420921   1.397698   1.397698   2.420921
    12  H    4.005708   3.636018   2.568373   1.106686   2.206140
    13  H    3.465027   2.206140   1.106686   2.568373   3.636018
                    6          7          8          9         10
     6  C    0.000000
     7  H    2.158011   0.000000
     8  H    3.415739   2.497091   0.000000
     9  H    2.176500   4.266442   4.909376   0.000000
    10  H    1.102760   2.437593   4.266442   2.497091   0.000000
    11  O    2.915627   3.957527   3.373951   3.373950   3.957527
    12  H    3.465028   5.098951   4.516408   2.519899   4.361673
    13  H    4.005708   4.361673   2.519899   4.516408   5.098951
                   11         12         13
    11  O    0.000000
    12  H    2.122672   0.000000
    13  H    2.122672   2.861473   0.000000
 Stoichiometry    C6H6O
 Framework group  C1[X(C6H6O)]
 Deg. of freedom    33
 Full point group                 C1      NOp   1
 Largest Abelian subgroup         C1      NOp   1
 Largest concise Abelian subgroup C1      NOp   1
                         Standard orientation:                         
 ---------------------------------------------------------------------
 Center     Atomic      Atomic             Coordinates (Angstroms)
 Number     Number       Type             X           Y           Z
 ---------------------------------------------------------------------
      1          6           0       -1.420901    0.705805    0.166317
      2          6           0       -0.306447    1.459664   -0.248606
      3          6           0        0.996221    0.938640   -0.225293
      4          6           0        0.996221   -0.938640   -0.225296
      5          6           0       -0.306446   -1.459663   -0.248609
      6          6           0       -1.420901   -0.705805    0.166316
      7          1           0       -2.389481    1.218796    0.287859
      8          1           0       -0.457668    2.454689   -0.700134
      9          1           0       -0.457667   -2.454687   -0.700139
     10          1           0       -2.389481   -1.218797    0.287857
     11          8           0        1.347351   -0.000001    0.748986
     12          1           0        1.844498   -1.430736   -0.738153
     13          1           0        1.844498    1.430738   -0.738149
 ---------------------------------------------------------------------
 Rotational constants (GHZ):      4.2853503      3.6930182      2.2370028

 **********************************************************************

            Population analysis using the SCF density.

 **********************************************************************

 Orbital symmetries:
       Occupied  (A) (A) (A) (A) (A) (A) (A) (A) (A) (A) (A) (A)
                 (A) (A) (A) (A) (A) (A) (A) (A) (A) (A) (A) (A)
                 (A)
       Virtual   (A) (A) (A) (A) (A) (A) (A) (A) (A) (A) (A) (A)
                 (A) (A) (A) (A) (A) (A) (A) (A) (A) (A) (A) (A)
                 (A) (A) (A) (A) (A) (A) (A) (A) (A) (A) (A) (A)
                 (A) (A) (A) (A) (A) (A) (A) (A) (A) (A) (A) (A)
                 (A) (A) (A) (A) (A) (A) (A) (A) (A) (A) (A) (A)
                 (A) (A) (A) (A) (A) (A) (A) (A) (A) (A) (A) (A)
                 (A) (A) (A) (A) (A) (A) (A) (A) (A) (A) (A) (A)
                 (A) (A) (A) (A) (A) (A) (A) (A) (A) (A) (A) (A)
                 (A) (A) (A) (A) (A) (A) (A)
 The electronic state is 1-A.
 Alpha  occ. eigenvalues --  -18.80590  -9.98271  -9.98269  -9.92541  -9.92525
 Alpha  occ. eigenvalues --   -9.92261  -9.92256  -0.99244  -0.74118  -0.69459
 Alpha  occ. eigenvalues --   -0.62163  -0.58010  -0.51039  -0.47778  -0.47353
 Alpha  occ. eigenvalues --   -0.42112  -0.41181  -0.40054  -0.37688  -0.34072
 Alpha  occ. eigenvalues --   -0.32406  -0.30317  -0.24032  -0.21922  -0.21845
 Alpha virt. eigenvalues --   -0.05336  -0.04716   0.03617   0.05560   0.06779
 Alpha virt. eigenvalues --    0.07510   0.10794   0.11682   0.12533   0.13371
 Alpha virt. eigenvalues --    0.19172   0.25086   0.25699   0.27072   0.33881
 Alpha virt. eigenvalues --    0.36574   0.37121   0.39459   0.40182   0.40185
 Alpha virt. eigenvalues --    0.41219   0.44237   0.44627   0.46123   0.48804
 Alpha virt. eigenvalues --    0.51304   0.52043   0.55310   0.55698   0.57987
 Alpha virt. eigenvalues --    0.58570   0.60040   0.62091   0.63680   0.65665
 Alpha virt. eigenvalues --    0.66427   0.66732   0.69414   0.70354   0.70557
 Alpha virt. eigenvalues --    0.78050   0.81727   0.88393   0.90816   0.98977
 Alpha virt. eigenvalues --    1.03472   1.08590   1.15481   1.21036   1.22833
 Alpha virt. eigenvalues --    1.23742   1.25605   1.26751   1.35834   1.37163
 Alpha virt. eigenvalues --    1.39581   1.57012   1.61329   1.61463   1.63273
 Alpha virt. eigenvalues --    1.64453   1.65249   1.66322   1.67293   1.70675
 Alpha virt. eigenvalues --    1.71775   1.74849   1.78718   1.80744   1.83160
 Alpha virt. eigenvalues --    1.85535   1.88605   1.91189   1.92170   1.95135
 Alpha virt. eigenvalues --    1.95769   1.99532   2.06386   2.08572   2.10634
 Alpha virt. eigenvalues --    2.14817   2.26106   2.26325   2.29781   2.29817
 Alpha virt. eigenvalues --    2.36088   2.44501   2.46127   2.54775   2.55841
 Alpha virt. eigenvalues --    2.62586   2.63994   2.68628   2.75092   2.81219
 Alpha virt. eigenvalues --    2.83527   2.89790   2.93991   3.03603   3.12089
 Alpha virt. eigenvalues --    3.22030   3.31205   3.46901
          Condensed to atoms (all electrons):
               1          2          3          4          5          6
     1  C    4.941886   0.364198   0.028855  -0.060875  -0.005097   0.424279
     2  C    0.364198   5.070028   0.370803  -0.010407  -0.029674  -0.005097
     3  C    0.028855   0.370803   4.939185   0.032326  -0.010407  -0.060875
     4  C   -0.060875  -0.010407   0.032326   4.939185   0.370803   0.028855
     5  C   -0.005097  -0.029674  -0.010407   0.370803   5.070029   0.364198
     6  C    0.424279  -0.005097  -0.060875   0.028855   0.364198   4.941886
     7  H    0.411403  -0.058297   0.012003  -0.000591   0.013142  -0.055606
     8  H   -0.049816   0.405503  -0.052550   0.003802  -0.001893   0.011371
     9  H    0.011371  -0.001893   0.003802  -0.052550   0.405503  -0.049816
    10  H   -0.055606   0.013142  -0.000591   0.012003  -0.058297   0.411403
    11  O    0.002834  -0.065536   0.277264   0.277264  -0.065536   0.002834
    12  H    0.001150  -0.003779   0.003007   0.395160  -0.062336   0.009737
    13  H    0.009737  -0.062336   0.395160   0.003007  -0.003779   0.001150
               7          8          9         10         11         12
     1  C    0.411403  -0.049816   0.011371  -0.055606   0.002834   0.001150
     2  C   -0.058297   0.405503  -0.001893   0.013142  -0.065536  -0.003779
     3  C    0.012003  -0.052550   0.003802  -0.000591   0.277264   0.003007
     4  C   -0.000591   0.003802  -0.052550   0.012003   0.277264   0.395160
     5  C    0.013142  -0.001893   0.405503  -0.058297  -0.065536  -0.062336
     6  C   -0.055606   0.011371  -0.049816   0.411403   0.002834   0.009737
     7  H    0.691002  -0.011762  -0.000303  -0.015294  -0.000103   0.000018
     8  H   -0.011762   0.679243   0.000050  -0.000303   0.003574   0.000115
     9  H   -0.000303   0.000050   0.679243  -0.011762   0.003574  -0.006054
    10  H   -0.015294  -0.000303  -0.011762   0.691002  -0.000103  -0.000357
    11  O   -0.000103   0.003574   0.003574  -0.000103   7.884119  -0.038483
    12  H    0.000018   0.000115  -0.006054  -0.000357  -0.038483   0.663763
    13  H   -0.000357  -0.006054   0.000115   0.000018  -0.038483   0.000959
              13
     1  C    0.009737
     2  C   -0.062336
     3  C    0.395160
     4  C    0.003007
     5  C   -0.003779
     6  C    0.001150
     7  H   -0.000357
     8  H   -0.006054
     9  H    0.000115
    10  H    0.000018
    11  O   -0.038483
    12  H    0.000959
    13  H    0.663763
 Mulliken charges:
               1
     1  C   -0.024319
     2  C    0.013344
     3  C    0.062018
     4  C    0.062018
     5  C    0.013344
     6  C   -0.024319
     7  H    0.014744
     8  H    0.018720
     9  H    0.018720
    10  H    0.014744
    11  O   -0.243218
    12  H    0.037102
    13  H    0.037102
 Sum of Mulliken charges =   0.00000
 Mulliken charges with hydrogens summed into heavy atoms:
               1
     1  C   -0.009575
     2  C    0.032064
     3  C    0.099120
     4  C    0.099120
     5  C    0.032064
     6  C   -0.009575
    11  O   -0.243218
 Electronic spatial extent (au):  <R**2>=            588.4975
 Charge=              0.0000 electrons
 Dipole moment (field-independent basis, Debye):
    X=             -0.3321    Y=              0.0000    Z=             -1.5681  Tot=              1.6029
 Quadrupole moment (field-independent basis, Debye-Ang):
   XX=            -37.9415   YY=            -36.6859   ZZ=            -44.1398
   XY=              0.0000   XZ=             -2.7237   YZ=              0.0000
 Traceless Quadrupole moment (field-independent basis, Debye-Ang):
   XX=              1.6476   YY=              2.9032   ZZ=             -4.5507
   XY=              0.0000   XZ=             -2.7237   YZ=              0.0000
 Octapole moment (field-independent basis, Debye-Ang**2):
  XXX=              1.7583  YYY=              0.0000  ZZZ=              2.7776  XYY=              1.7481
  XXY=              0.0000  XXZ=             -1.6597  XZZ=              2.8606  YZZ=              0.0000
  YYZ=             -4.4879  XYZ=              0.0000
 Hexadecapole moment (field-independent basis, Debye-Ang**3):
 XXXX=           -350.2270 YYYY=           -323.0731 ZZZZ=            -83.3756 XXXY=              0.0000
 XXXZ=             -8.0547 YYYX=              0.0000 YYYZ=             -0.0001 ZZZX=              4.0253
 ZZZY=             -0.0001 XXYY=           -107.4354 XXZZ=            -79.0830 YYZZ=            -69.6664
 XXYZ=              0.0000 YYXZ=              0.1770 ZZXY=              0.0000
 N-N= 2.778014188818D+02 E-N=-1.269048759438D+03  KE= 3.037491071849D+02
 1\1\GINC-QC0019\FTS\RBP86\SVP\C6H6O1\ELIOT\05-Oct-2018\0\\# opt=(ts,ca
 lcfc,noeigen) bp86/SVP\\ts.log\\0,1\C,1.4201570554,-0.7058172275,0.168
 6606698\C,0.3056967864,-1.4596670893,-0.2462621198\C,-0.9969668983,-0.
 9386329412,-0.2229500487\C,-0.9969514707,0.938647256,-0.2229522562\C,0
 .3057207887,1.4596599353,-0.2462656244\C,1.4201686857,0.7057926946,0.1
 686590017\H,2.3887329651,-1.2188166211,0.2902027804\H,0.4569097078,-2.
 4546934709,-0.697790116\H,0.4569500769,2.4546827422,-0.6977960003\H,2.
 3887530342,1.2187764222,0.2901999222\O,-1.3480891114,0.0000112452,0.75
 13289524\H,-1.8452240464,1.4307500996,-0.7358092821\H,-1.8452475734,-1
 .4307230449,-0.735805879\\Version=ES64L-G09RevE.01\State=1-A\HF=-307.1
 670051\RMSD=7.968e-09\RMSF=6.146e-06\Dipole=0.1306472,-0.0000019,-0.61
 69302\Quadrupole=1.2249199,2.1584358,-3.3833557,0.0000101,2.0249723,-0
 .0000232\PG=C01 [X(C6H6O1)]\\@


 KNIGHT- SIRE, I'VE JUST RETURNED FROM THE FRONT
 KING-   HOW GOES THE BATTLE                    
 KNIGHT- THE SITUATION IS QUITE FLUID           
 KING-   WHAT DOES *THAT* MEAN                  
 KNIGHT- WE'RE UP THE CREEK                     
                THE WIZARD OF ID                
 Job cpu time:       0 days  0 hours  4 minutes 10.2 seconds.
 File lengths (MBytes):  RWF=     30 Int=      0 D2E=      0 Chk=      2 Scr=      1
 Normal termination of Gaussian 09 at Fri Oct  5 10:19:03 2018.
