 Entering Gaussian System, Link 0=/home/eliot/software/g09E01/g09
 Initial command:
 /home/eliot/software/g09E01/l1.exe "/tmp/Gau-9042.inp" -scrdir="/tmp/"
 Entering Link 1 = /home/eliot/software/g09E01/l1.exe PID=      9044.
  
 Copyright (c) 1988,1990,1992,1993,1995,1998,2003,2009,2015,
            Gaussian, Inc.  All Rights Reserved.
  
 This is part of the Gaussian(R) 09 program.  It is based on
 the Gaussian(R) 03 system (copyright 2003, Gaussian, Inc.),
 the Gaussian(R) 98 system (copyright 1998, Gaussian, Inc.),
 the Gaussian(R) 94 system (copyright 1995, Gaussian, Inc.),
 the Gaussian 92(TM) system (copyright 1992, Gaussian, Inc.),
 the Gaussian 90(TM) system (copyright 1990, Gaussian, Inc.),
 the Gaussian 88(TM) system (copyright 1988, Gaussian, Inc.),
 the Gaussian 86(TM) system (copyright 1986, Carnegie Mellon
 University), and the Gaussian 82(TM) system (copyright 1983,
 Carnegie Mellon University). Gaussian is a federally registered
 trademark of Gaussian, Inc.
  
 This software contains proprietary and confidential information,
 including trade secrets, belonging to Gaussian, Inc.
  
 This software is provided under written license and may be
 used, copied, transmitted, or stored only in accord with that
 written license.
  
 The following legend is applicable only to US Government
 contracts under FAR:
  
                    RESTRICTED RIGHTS LEGEND
  
 Use, reproduction and disclosure by the US Government is
 subject to restrictions as set forth in subparagraphs (a)
 and (c) of the Commercial Computer Software - Restricted
 Rights clause in FAR 52.227-19.
  
 Gaussian, Inc.
 340 Quinnipiac St., Bldg. 40, Wallingford CT 06492
  
  
 ---------------------------------------------------------------
 Warning -- This program may not be used in any manner that
 competes with the business of Gaussian, Inc. or will provide
 assistance to any competitor of Gaussian, Inc.  The licensee
 of this program is prohibited from giving any competitor of
 Gaussian, Inc. access to this program.  By using this program,
 the user acknowledges that Gaussian, Inc. is engaged in the
 business of creating and licensing software in the field of
 computational chemistry and represents and warrants to the
 licensee that it is not a competitor of Gaussian, Inc. and that
 it will not use this program in any manner prohibited above.
 ---------------------------------------------------------------
  

 Cite this work as:
 Gaussian 09, Revision E.01,
 M. J. Frisch, G. W. Trucks, H. B. Schlegel, G. E. Scuseria, 
 M. A. Robb, J. R. Cheeseman, G. Scalmani, V. Barone, B. Mennucci, 
 G. A. Petersson, H. Nakatsuji, M. Caricato, X. Li, H. P. Hratchian, 
 A. F. Izmaylov, J. Bloino, G. Zheng, J. L. Sonnenberg, M. Hada, 
 M. Ehara, K. Toyota, R. Fukuda, J. Hasegawa, M. Ishida, T. Nakajima, 
 Y. Honda, O. Kitao, H. Nakai, T. Vreven, J. A. Montgomery, Jr., 
 J. E. Peralta, F. Ogliaro, M. Bearpark, J. J. Heyd, E. Brothers, 
 K. N. Kudin, V. N. Staroverov, T. Keith, R. Kobayashi, J. Normand, 
 K. Raghavachari, A. Rendell, J. C. Burant, S. S. Iyengar, J. Tomasi, 
 M. Cossi, N. Rega, J. M. Millam, M. Klene, J. E. Knox, J. B. Cross, 
 V. Bakken, C. Adamo, J. Jaramillo, R. Gomperts, R. E. Stratmann, 
 O. Yazyev, A. J. Austin, R. Cammi, C. Pomelli, J. W. Ochterski, 
 R. L. Martin, K. Morokuma, V. G. Zakrzewski, G. A. Voth, 
 P. Salvador, J. J. Dannenberg, S. Dapprich, A. D. Daniels, 
 O. Farkas, J. B. Foresman, J. V. Ortiz, J. Cioslowski, 
 and D. J. Fox, Gaussian, Inc., Wallingford CT, 2013.
 
 ******************************************
 Gaussian 09:  ES64L-G09RevE.01 30-Nov-2015
                 5-Oct-2018 
 ******************************************
 %nproc=2
 Will use up to    2 processors via shared memory.
 ---------------
 # freq hf/3-21g
 ---------------
 1/10=4,30=1,38=1/1,3;
 2/12=2,17=6,18=5,40=1/2;
 3/5=5,11=9,16=1,25=1,30=1,71=2,140=1/1,2,3;
 4//1;
 5/5=2,38=5,98=1/2;
 8/6=4,10=90,11=11/1;
 10/13=10,15=4/2;
 11/6=3,8=1,9=11,15=111,16=1/1,2,10;
 10/6=1/2;
 6/7=2,8=2,9=2,10=2,18=1,28=1/1;
 7/8=1,10=1,25=1/1,2,3,16;
 1/10=4,30=1/3;
 99//99;
 --------------
 ts-hf-321g.log
 --------------
 Symbolic Z-matrix:
 Charge =  0 Multiplicity = 1
 C                    -0.33764  -1.36333   0.70181 
 C                    -0.33764  -0.20726   1.43686 
 C                     0.10211   1.00442   0.91039 
 C                     0.10211   1.00442  -0.91039 
 C                    -0.33764  -0.20726  -1.43686 
 C                    -0.33764  -1.36333  -0.70181 
 H                    -0.56538  -2.28825   1.19548 
 H                    -0.76183  -0.20548   2.42267 
 H                    -0.76183  -0.20548  -2.42267 
 H                    -0.56538  -2.28825  -1.19548 
 O                     1.20682   0.98617   0. 
 H                    -0.06107   1.94608  -1.3889 
 H                    -0.06107   1.94608   1.3889 
 

 GradGradGradGradGradGradGradGradGradGradGradGradGradGradGradGradGradGrad
 Berny optimization.
 Initialization pass.
 Trust Radius=3.00D-01 FncErr=1.00D-07 GrdErr=1.00D-07
 Number of steps in this run=      2 maximum allowed number of steps=      2.
 GradGradGradGradGradGradGradGradGradGradGradGradGradGradGradGradGradGrad

                          Input orientation:                          
 ---------------------------------------------------------------------
 Center     Atomic      Atomic             Coordinates (Angstroms)
 Number     Number       Type             X           Y           Z
 ---------------------------------------------------------------------
      1          6           0       -0.337640   -1.363330    0.701810
      2          6           0       -0.337640   -0.207260    1.436860
      3          6           0        0.102110    1.004420    0.910390
      4          6           0        0.102110    1.004420   -0.910390
      5          6           0       -0.337640   -0.207260   -1.436860
      6          6           0       -0.337640   -1.363330   -0.701810
      7          1           0       -0.565380   -2.288250    1.195480
      8          1           0       -0.761830   -0.205480    2.422670
      9          1           0       -0.761830   -0.205480   -2.422670
     10          1           0       -0.565380   -2.288250   -1.195480
     11          8           0        1.206820    0.986170    0.000000
     12          1           0       -0.061070    1.946080   -1.388900
     13          1           0       -0.061070    1.946080    1.388900
 ---------------------------------------------------------------------
                    Distance matrix (angstroms):
                    1          2          3          4          5
     1  C    0.000000
     2  C    1.369962   0.000000
     3  C    2.417256   1.392379   0.000000
     4  C    2.898070   2.677897   1.820780   0.000000
     5  C    2.431133   2.873720   2.677897   1.392379   0.000000
     6  C    1.403620   2.431133   2.898070   2.417256   1.369962
     7  H    1.072871   2.107285   3.371720   3.965086   3.363272
     8  H    2.117053   1.073202   2.120670   3.649594   3.882771
     9  H    3.359007   3.882771   3.649594   2.120670   1.073202
    10  H    2.122982   3.363272   3.965086   3.371720   2.107285
    11  O    2.897938   2.423675   1.431617   1.431617   2.423675
    12  H    3.924252   3.563465   2.489997   1.068795   2.171558
    13  H    3.391280   2.171558   1.068795   2.489997   3.563465
                    6          7          8          9         10
     6  C    0.000000
     7  H    2.122982   0.000000
     8  H    3.359007   2.425390   0.000000
     9  H    2.117053   4.179418   4.845340   0.000000
    10  H    1.072871   2.390960   4.179418   2.425390   0.000000
    11  O    2.897938   3.910459   3.341398   3.341398   3.910459
    12  H    3.391280   4.986271   4.432645   2.487761   4.268640
    13  H    3.924252   4.268640   2.487761   4.432645   4.986271
                   11         12         13
    11  O    0.000000
    12  H    2.111401   0.000000
    13  H    2.111401   2.777800   0.000000
 Stoichiometry    C6H6O
 Framework group  CS[SG(O),X(C6H6)]
 Deg. of freedom    17
 Full point group                 CS      NOp   2
 Largest Abelian subgroup         CS      NOp   2
 Largest concise Abelian subgroup CS      NOp   2
                         Standard orientation:                         
 ---------------------------------------------------------------------
 Center     Atomic      Atomic             Coordinates (Angstroms)
 Number     Number       Type             X           Y           Z
 ---------------------------------------------------------------------
      1          6           0        0.337639    1.363330    0.701810
      2          6           0        0.337639    0.207260    1.436860
      3          6           0       -0.102111   -1.004420    0.910390
      4          6           0       -0.102111   -1.004420   -0.910390
      5          6           0        0.337639    0.207260   -1.436860
      6          6           0        0.337639    1.363330   -0.701810
      7          1           0        0.565379    2.288250    1.195480
      8          1           0        0.761829    0.205480    2.422670
      9          1           0        0.761829    0.205480   -2.422670
     10          1           0        0.565379    2.288250   -1.195480
     11          8           0       -1.206821   -0.986170    0.000000
     12          1           0        0.061069   -1.946080   -1.388900
     13          1           0        0.061069   -1.946080    1.388900
 ---------------------------------------------------------------------
 Rotational constants (GHZ):      4.3861722      3.7595179      2.3084209
 Standard basis: 3-21G (6D, 7F)
 There are    40 symmetry adapted cartesian basis functions of A'  symmetry.
 There are    35 symmetry adapted cartesian basis functions of A"  symmetry.
 There are    40 symmetry adapted basis functions of A'  symmetry.
 There are    35 symmetry adapted basis functions of A"  symmetry.
    75 basis functions,   123 primitive gaussians,    75 cartesian basis functions
    25 alpha electrons       25 beta electrons
       nuclear repulsion energy       280.8296382667 Hartrees.
 NAtoms=   13 NActive=   13 NUniq=    7 SFac= 3.45D+00 NAtFMM=   60 NAOKFM=F Big=F
 Integral buffers will be    131072 words long.
 Raffenetti 1 integral format.
 Two-electron integral symmetry is turned on.
 One-electron integrals computed using PRISM.
 NBasis=    75 RedAO= T EigKep=  1.85D-03  NBF=    40    35
 NBsUse=    75 1.00D-06 EigRej= -1.00D+00 NBFU=    40    35
 ExpMin= 1.83D-01 ExpMax= 3.22D+02 ExpMxC= 3.22D+02 IAcc=1 IRadAn=         1 AccDes= 0.00D+00
 Harris functional with IExCor=  205 and IRadAn=       1 diagonalized for initial guess.
 HarFok:  IExCor=  205 AccDes= 0.00D+00 IRadAn=         1 IDoV= 1 UseB2=F ITyADJ=14
 ICtDFT=  3500011 ScaDFX=  1.000000  1.000000  1.000000  1.000000
 FoFCou: FMM=F IPFlag=           0 FMFlag=      100000 FMFlg1=           0
         NFxFlg=           0 DoJE=T BraDBF=F KetDBF=T FulRan=T
         wScrn=  0.000000 ICntrl=     500 IOpCl=  0 I1Cent=   200000004 NGrid=           0
         NMat0=    1 NMatS0=      1 NMatT0=    0 NMatD0=    1 NMtDS0=    0 NMtDT0=    0
 Petite list used in FoFCou.
 Initial guess orbital symmetries:
       Occupied  (A') (A") (A') (A") (A') (A") (A') (A') (A') (A")
                 (A') (A") (A') (A') (A") (A') (A") (A') (A") (A')
                 (A") (A') (A') (A") (A')
       Virtual   (A') (A") (A") (A') (A") (A') (A') (A") (A') (A")
                 (A") (A") (A') (A') (A") (A") (A') (A') (A") (A')
                 (A') (A") (A") (A') (A") (A') (A') (A") (A') (A")
                 (A") (A') (A") (A") (A') (A") (A') (A') (A") (A')
                 (A') (A") (A") (A') (A') (A") (A') (A") (A") (A')
 The electronic state of the initial guess is 1-A'.
 Keep R1 ints in memory in symmetry-blocked form, NReq=6138275.
 Requested convergence on RMS density matrix=1.00D-08 within 128 cycles.
 Requested convergence on MAX density matrix=1.00D-06.
 Requested convergence on             energy=1.00D-06.
 No special actions if energy rises.
 SCF Done:  E(RHF) =  -303.751528562     A.U. after   13 cycles
            NFock= 13  Conv=0.73D-08     -V/T= 2.0022
 Range of M.O.s used for correlation:     1    75
 NBasis=    75 NAE=    25 NBE=    25 NFC=     0 NFV=     0
 NROrb=     75 NOA=    25 NOB=    25 NVA=    50 NVB=    50
          Differentiating once with respect to electric field.
                with respect to dipole field.
          Electric field/nuclear overlap derivatives assumed to be zero.
 Keep R1 ints in memory in symmetry-blocked form, NReq=6102734.
          There are     3 degrees of freedom in the 1st order CPHF.  IDoFFX=0 NUNeed=     3.
      3 vectors produced by pass  0 Test12= 4.17D-14 3.33D-08 XBig12= 2.85D+01 3.27D+00.
 AX will form     3 AO Fock derivatives at one time.
      3 vectors produced by pass  1 Test12= 4.17D-14 3.33D-08 XBig12= 2.82D+00 5.45D-01.
      3 vectors produced by pass  2 Test12= 4.17D-14 3.33D-08 XBig12= 1.61D-01 9.74D-02.
      3 vectors produced by pass  3 Test12= 4.17D-14 3.33D-08 XBig12= 2.34D-03 2.13D-02.
      3 vectors produced by pass  4 Test12= 4.17D-14 3.33D-08 XBig12= 1.84D-04 4.00D-03.
      3 vectors produced by pass  5 Test12= 4.17D-14 3.33D-08 XBig12= 2.12D-05 1.20D-03.
      3 vectors produced by pass  6 Test12= 4.17D-14 3.33D-08 XBig12= 5.66D-07 2.61D-04.
      3 vectors produced by pass  7 Test12= 4.17D-14 3.33D-08 XBig12= 4.76D-08 3.60D-05.
      3 vectors produced by pass  8 Test12= 4.17D-14 3.33D-08 XBig12= 6.35D-09 3.84D-05.
      3 vectors produced by pass  9 Test12= 4.17D-14 3.33D-08 XBig12= 2.27D-10 5.57D-06.
      2 vectors produced by pass 10 Test12= 4.17D-14 3.33D-08 XBig12= 4.49D-12 4.09D-07.
      1 vectors produced by pass 11 Test12= 4.17D-14 3.33D-08 XBig12= 9.27D-14 7.84D-08.
 InvSVY:  IOpt=1 It=  1 EMax= 1.78D-15
 Solved reduced A of dimension    33 with     3 vectors.
 End of Minotr F.D. properties file   721 does not exist.
 End of Minotr F.D. properties file   722 does not exist.
 End of Minotr F.D. properties file   788 does not exist.
 Symmetrizing basis deriv contribution to polar:
 IMax=3 JMax=2 DiffMx= 0.00D+00
 G2DrvN: will do    14 centers at a time, making    1 passes.
 PxScal for G2LodP:  IOpCl= 0 ISclPx=1 IMOff=     1 NMtTot=     4 NTT=    2850 ScalPx= 1.31D+00
 Calling FoFCou, ICntrl=  3107 FMM=F I1Cent=   0 AccDes= 0.00D+00.
 End of G2Drv F.D. properties file   721 does not exist.
 End of G2Drv F.D. properties file   722 does not exist.
 End of G2Drv F.D. properties file   788 does not exist.
          IDoAtm=1111111111111
          Differentiating once with respect to electric field.
                with respect to dipole field.
          Differentiating once with respect to nuclear coordinates.
 Keep R1 ints in memory in symmetry-blocked form, NReq=6103033.
          There are    24 degrees of freedom in the 1st order CPHF.  IDoFFX=4 NUNeed=    24.
 Will reuse    3 saved solutions.
     21 vectors produced by pass  0 Test12= 5.21D-15 4.17D-09 XBig12= 6.37D-02 9.57D-02.
 AX will form    21 AO Fock derivatives at one time.
     21 vectors produced by pass  1 Test12= 5.21D-15 4.17D-09 XBig12= 4.49D-03 2.77D-02.
     21 vectors produced by pass  2 Test12= 5.21D-15 4.17D-09 XBig12= 2.84D-04 3.47D-03.
     21 vectors produced by pass  3 Test12= 5.21D-15 4.17D-09 XBig12= 2.47D-06 3.60D-04.
     21 vectors produced by pass  4 Test12= 5.21D-15 4.17D-09 XBig12= 3.79D-08 4.80D-05.
     21 vectors produced by pass  5 Test12= 5.21D-15 4.17D-09 XBig12= 3.92D-10 3.55D-06.
     21 vectors produced by pass  6 Test12= 5.21D-15 4.17D-09 XBig12= 2.34D-12 2.13D-07.
      9 vectors produced by pass  7 Test12= 5.21D-15 4.17D-09 XBig12= 1.54D-14 1.98D-08.
 InvSVY:  IOpt=1 It=  1 EMax= 2.78D-16
 Solved reduced A of dimension   156 with    24 vectors.
 Isotropic polarizability for W=    0.000000       53.55 Bohr**3.
 End of Minotr F.D. properties file   721 does not exist.
 End of Minotr F.D. properties file   722 does not exist.
 End of Minotr F.D. properties file   788 does not exist.

 **********************************************************************

            Population analysis using the SCF density.

 **********************************************************************

 Orbital symmetries:
       Occupied  (A') (A") (A') (A") (A') (A") (A') (A') (A') (A")
                 (A') (A") (A') (A') (A") (A') (A") (A') (A") (A')
                 (A") (A') (A') (A') (A")
       Virtual   (A') (A") (A') (A") (A") (A') (A') (A") (A') (A")
                 (A") (A") (A') (A') (A") (A") (A') (A') (A") (A')
                 (A") (A') (A') (A") (A") (A') (A') (A") (A') (A")
                 (A") (A') (A") (A') (A") (A") (A') (A') (A") (A')
                 (A") (A') (A") (A') (A') (A") (A') (A") (A") (A')
 The electronic state is 1-A'.
 Alpha  occ. eigenvalues --  -20.48746 -11.25335 -11.25331 -11.18380 -11.18339
 Alpha  occ. eigenvalues --  -11.18236 -11.18208  -1.42092  -1.12450  -1.05157
 Alpha  occ. eigenvalues --   -0.95424  -0.87970  -0.79554  -0.73617  -0.70466
 Alpha  occ. eigenvalues --   -0.64915  -0.63841  -0.61853  -0.56912  -0.53297
 Alpha  occ. eigenvalues --   -0.52615  -0.48869  -0.45496  -0.33360  -0.32699
 Alpha virt. eigenvalues --    0.12452   0.14847   0.25420   0.30375   0.31254
 Alpha virt. eigenvalues --    0.31662   0.35599   0.36311   0.38352   0.38656
 Alpha virt. eigenvalues --    0.45718   0.50637   0.53637   0.54285   0.73203
 Alpha virt. eigenvalues --    0.73796   0.88963   0.89769   0.93895   0.94779
 Alpha virt. eigenvalues --    1.00236   1.02046   1.04306   1.04957   1.06460
 Alpha virt. eigenvalues --    1.09787   1.11198   1.13446   1.14425   1.26380
 Alpha virt. eigenvalues --    1.29190   1.31289   1.32252   1.39464   1.39864
 Alpha virt. eigenvalues --    1.43024   1.51563   1.57221   1.61536   1.62779
 Alpha virt. eigenvalues --    1.74863   1.76606   1.78709   1.98324   1.99551
 Alpha virt. eigenvalues --    2.08062   2.26813   2.27721   2.70312   3.41976
          Condensed to atoms (all electrons):
               1          2          3          4          5          6
     1  C    5.152977   0.485041  -0.095673  -0.004032  -0.105668   0.451620
     2  C    0.485041   5.355509   0.312879  -0.038307  -0.008096  -0.105668
     3  C   -0.095673   0.312879   5.273109  -0.008932  -0.038307  -0.004032
     4  C   -0.004032  -0.038307  -0.008932   5.273109   0.312879  -0.095673
     5  C   -0.105668  -0.008096  -0.038307   0.312879   5.355509   0.485041
     6  C    0.451620  -0.105668  -0.004032  -0.095673   0.485041   5.152977
     7  H    0.400634  -0.036858   0.002829  -0.000003   0.002392  -0.036158
     8  H   -0.029916   0.391128  -0.034521   0.001030  -0.000130   0.002026
     9  H    0.002026  -0.000130   0.001030  -0.034521   0.391128  -0.029916
    10  H   -0.036158   0.002392  -0.000003   0.002829  -0.036858   0.400634
    11  O    0.003706  -0.071898   0.214019   0.214019  -0.071898   0.003706
    12  H    0.000131  -0.001018  -0.001927   0.388739  -0.053077   0.002342
    13  H    0.002342  -0.053077   0.388739  -0.001927  -0.001018   0.000131
               7          8          9         10         11         12
     1  C    0.400634  -0.029916   0.002026  -0.036158   0.003706   0.000131
     2  C   -0.036858   0.391128  -0.000130   0.002392  -0.071898  -0.001018
     3  C    0.002829  -0.034521   0.001030  -0.000003   0.214019  -0.001927
     4  C   -0.000003   0.001030  -0.034521   0.002829   0.214019   0.388739
     5  C    0.002392  -0.000130   0.391128  -0.036858  -0.071898  -0.053077
     6  C   -0.036158   0.002026  -0.029916   0.400634   0.003706   0.002342
     7  H    0.429597  -0.001463  -0.000042  -0.001845   0.000036   0.000001
     8  H   -0.001463   0.421193   0.000004  -0.000042   0.000562   0.000007
     9  H   -0.000042   0.000004   0.421193  -0.001463   0.000562   0.000411
    10  H   -0.001845  -0.000042  -0.001463   0.429597   0.000036  -0.000026
    11  O    0.000036   0.000562   0.000562   0.000036   8.307067  -0.029914
    12  H    0.000001   0.000007   0.000411  -0.000026  -0.029914   0.445097
    13  H   -0.000026   0.000411   0.000007   0.000001  -0.029914   0.001670
              13
     1  C    0.002342
     2  C   -0.053077
     3  C    0.388739
     4  C   -0.001927
     5  C   -0.001018
     6  C    0.000131
     7  H   -0.000026
     8  H    0.000411
     9  H    0.000007
    10  H    0.000001
    11  O   -0.029914
    12  H    0.001670
    13  H    0.445097
 Mulliken charges:
               1
     1  C   -0.227030
     2  C   -0.231896
     3  C   -0.009211
     4  C   -0.009211
     5  C   -0.231896
     6  C   -0.227030
     7  H    0.240906
     8  H    0.249711
     9  H    0.249711
    10  H    0.240906
    11  O   -0.540088
    12  H    0.247564
    13  H    0.247564
 Sum of Mulliken charges =   0.00000
 Mulliken charges with hydrogens summed into heavy atoms:
               1
     1  C    0.013877
     2  C    0.017815
     3  C    0.238353
     4  C    0.238353
     5  C    0.017815
     6  C    0.013877
    11  O   -0.540088
 APT charges:
               1
     1  C   -0.032353
     2  C   -0.111552
     3  C    0.216867
     4  C    0.216867
     5  C   -0.111552
     6  C   -0.032353
     7  H    0.044300
     8  H    0.060034
     9  H    0.060034
    10  H    0.044300
    11  O   -0.411022
    12  H    0.028215
    13  H    0.028215
 Sum of APT charges =   0.00000
 APT charges with hydrogens summed into heavy atoms:
               1
     1  C    0.011948
     2  C   -0.051519
     3  C    0.245082
     4  C    0.245082
     5  C   -0.051519
     6  C    0.011948
    11  O   -0.411022
 Electronic spatial extent (au):  <R**2>=            575.7280
 Charge=              0.0000 electrons
 Dipole moment (field-independent basis, Debye):
    X=              2.5961    Y=             -0.1826    Z=              0.0000  Tot=              2.6025
 Quadrupole moment (field-independent basis, Debye-Ang):
   XX=            -47.8992   YY=            -36.1477   ZZ=            -35.9231
   XY=             -0.5761   XZ=              0.0000   YZ=              0.0000
 Traceless Quadrupole moment (field-independent basis, Debye-Ang):
   XX=             -7.9092   YY=              3.8423   ZZ=              4.0669
   XY=             -0.5761   XZ=              0.0000   YZ=              0.0000
 Octapole moment (field-independent basis, Debye-Ang**2):
  XXX=             -2.7878  YYY=             -3.4725  ZZZ=              0.0000  XYY=              3.4994
  XXY=              1.0480  XXZ=              0.0000  XZZ=              5.1366  YZZ=             -3.8079
  YYZ=              0.0000  XYZ=              0.0000
 Hexadecapole moment (field-independent basis, Debye-Ang**3):
 XXXX=           -121.8389 YYYY=           -289.6714 ZZZZ=           -299.8782 XXXY=            -50.9174
 XXXZ=              0.0000 YYYX=            -39.0837 YYYZ=              0.0000 ZZZX=              0.0000
 ZZZY=              0.0000 XXYY=            -79.8147 XXZZ=            -72.3913 YYZZ=            -94.8884
 XXYZ=              0.0000 YYXZ=              0.0000 ZZXY=            -11.6420
 N-N= 2.808296382667D+02 E-N=-1.271178885181D+03  KE= 3.030798178586D+02
 Symmetry A'   KE= 1.878454048126D+02
 Symmetry A"   KE= 1.152344130460D+02
  Exact polarizability:  24.456   7.714  66.007   0.000   0.000  70.181
 Approx polarizability:  25.006   7.680  65.314   0.000   0.000  71.209
 Calling FoFJK, ICntrl=    100127 FMM=F ISym2X=1 I1Cent= 0 IOpClX= 0 NMat=1 NMatS=1 NMatT=0.
 Full mass-weighted force constant matrix:
 Low frequencies --- -720.7467   -5.1149   -3.4928   -1.8264    0.0004    0.0014
 Low frequencies ---    0.0019  324.4510  369.9065
 ******    1 imaginary frequencies (negative Signs) ****** 
 Diagonal vibrational polarizability:
        6.0065407       3.0960603       1.6580462
 Diagonal vibrational hyperpolarizability:
       42.4148890      -9.7687117       0.0000007
 Harmonic frequencies (cm**-1), IR intensities (KM/Mole), Raman scattering
 activities (A**4/AMU), depolarization ratios for plane and unpolarized
 incident light, reduced masses (AMU), force constants (mDyne/A),
 and normal coordinates:
                      1                      2                      3
                     A'                     A'                     A"
 Frequencies --   -720.7467               324.4510               369.9065
 Red. masses --      6.0223                 5.4928                 3.1929
 Frc consts  --      1.8432                 0.3407                 0.2574
 IR Inten    --      5.9124                 4.3812                 0.6914
 Raman Activ --     12.2683                 5.0233                 0.8747
 Depolar (P) --      0.2838                 0.6545                 0.7500
 Depolar (U) --      0.4421                 0.7912                 0.8571
  Atom  AN      X      Y      Z        X      Y      Z        X      Y      Z
     1   6    -0.03   0.03  -0.09    -0.21  -0.10   0.01    -0.19   0.02  -0.01
     2   6     0.02  -0.09   0.02     0.16  -0.11   0.01    -0.07   0.02   0.00
     3   6    -0.16   0.08   0.39     0.06  -0.03  -0.04     0.19  -0.05  -0.07
     4   6    -0.16   0.08  -0.39     0.06  -0.03   0.04    -0.19   0.05  -0.07
     5   6     0.02  -0.09  -0.02     0.16  -0.11  -0.01     0.07  -0.02   0.00
     6   6    -0.03   0.03   0.09    -0.21  -0.10  -0.01     0.19  -0.02  -0.01
     7   1    -0.08   0.02  -0.03    -0.43  -0.03  -0.02    -0.44   0.06   0.03
     8   1     0.44  -0.06  -0.16     0.28  -0.09  -0.05    -0.17   0.11   0.04
     9   1     0.44  -0.06   0.16     0.28  -0.09   0.05     0.17  -0.11   0.04
    10   1    -0.08   0.02   0.03    -0.43  -0.03   0.02     0.44  -0.06   0.03
    11   8     0.21  -0.02   0.00     0.03   0.39   0.00     0.00   0.00   0.13
    12   1    -0.05   0.01  -0.22    -0.16  -0.11   0.11    -0.35   0.07  -0.18
    13   1    -0.05   0.01   0.22    -0.16  -0.11  -0.11     0.35  -0.07  -0.18
                      4                      5                      6
                     A'                     A"                     A"
 Frequencies --    514.7731               546.6008               725.8825
 Red. masses --      3.3026                 6.4074                 3.1004
 Frc consts  --      0.5156                 1.1279                 0.9625
 IR Inten    --     10.3593                 1.7205                 5.1669
 Raman Activ --      7.6285                 7.0797                 1.6241
 Depolar (P) --      0.7432                 0.7500                 0.7500
 Depolar (U) --      0.8527                 0.8571                 0.8571
  Atom  AN      X      Y      Z        X      Y      Z        X      Y      Z
     1   6     0.05  -0.10   0.02     0.08   0.19   0.20     0.20  -0.05  -0.05
     2   6    -0.16   0.03   0.18     0.05   0.17   0.11    -0.17   0.02   0.05
     3   6     0.06  -0.02   0.06     0.10   0.24  -0.19     0.08  -0.05  -0.05
     4   6     0.06  -0.02  -0.06    -0.10  -0.24  -0.19    -0.08   0.05  -0.05
     5   6    -0.16   0.03  -0.18    -0.05  -0.17   0.11     0.17  -0.02   0.05
     6   6     0.05  -0.10  -0.02    -0.08  -0.19   0.20    -0.20   0.05  -0.05
     7   1     0.02  -0.06  -0.05     0.12   0.27   0.03     0.40  -0.08  -0.08
     8   1    -0.50   0.15   0.33     0.03  -0.07   0.11    -0.40   0.07   0.15
     9   1    -0.50   0.15  -0.33    -0.03   0.07   0.11     0.40  -0.07   0.15
    10   1     0.02  -0.06   0.05    -0.12  -0.27   0.03    -0.40   0.08  -0.08
    11   8     0.15   0.13   0.00     0.00   0.00  -0.15     0.00   0.00   0.07
    12   1    -0.07  -0.03  -0.08    -0.19  -0.23  -0.25    -0.17   0.07  -0.11
    13   1    -0.07  -0.03   0.08     0.19   0.23  -0.25     0.17  -0.07  -0.11
                      7                      8                      9
                     A'                     A'                     A"
 Frequencies --    788.3097               815.9497               902.1087
 Red. masses --      3.2669                 1.4114                 1.6311
 Frc consts  --      1.1962                 0.5536                 0.7821
 IR Inten    --     24.1687                99.7989                20.1552
 Raman Activ --      2.7605                 6.7266                 1.4563
 Depolar (P) --      0.5886                 0.4112                 0.7500
 Depolar (U) --      0.7411                 0.5828                 0.8571
  Atom  AN      X      Y      Z        X      Y      Z        X      Y      Z
     1   6    -0.03  -0.11   0.02    -0.03   0.00  -0.01    -0.04   0.02   0.02
     2   6     0.07   0.02   0.22    -0.10  -0.01  -0.02    -0.10   0.00  -0.02
     3   6    -0.02   0.15  -0.01     0.02  -0.01  -0.03    -0.09   0.03  -0.03
     4   6    -0.02   0.15   0.01     0.02  -0.01   0.03     0.09  -0.03  -0.03
     5   6     0.07   0.02  -0.22    -0.10  -0.01   0.02     0.10   0.00  -0.02
     6   6    -0.03  -0.11  -0.02    -0.03   0.00   0.01     0.04  -0.02   0.02
     7   1     0.03  -0.01  -0.18     0.49  -0.11  -0.04     0.26  -0.04  -0.01
     8   1     0.33  -0.05   0.10     0.30  -0.08  -0.20     0.44  -0.16  -0.25
     9   1     0.33  -0.05  -0.10     0.30  -0.08   0.20    -0.44   0.16  -0.25
    10   1     0.03  -0.01   0.18     0.49  -0.11   0.04    -0.26   0.04  -0.01
    11   8    -0.11  -0.09   0.00     0.05   0.06   0.00     0.00   0.00   0.10
    12   1     0.34   0.04   0.36     0.22  -0.06   0.20    -0.28   0.00  -0.20
    13   1     0.34   0.04  -0.36     0.22  -0.06  -0.20     0.28   0.00  -0.20
                     10                     11                     12
                     A'                     A"                     A"
 Frequencies --    955.7589               965.1684              1006.2714
 Red. masses --      1.3073                 2.4659                 2.4800
 Frc consts  --      0.7036                 1.3534                 1.4795
 IR Inten    --     14.2153                 5.3309                 1.6679
 Raman Activ --      2.5807                 3.7265                 2.1715
 Depolar (P) --      0.7294                 0.7500                 0.7500
 Depolar (U) --      0.8435                 0.8571                 0.8571
  Atom  AN      X      Y      Z        X      Y      Z        X      Y      Z
     1   6    -0.07  -0.02   0.02     0.03   0.03   0.07    -0.01   0.12   0.06
     2   6     0.05   0.05   0.04    -0.01  -0.03  -0.14    -0.08   0.03  -0.07
     3   6     0.03  -0.02   0.01    -0.05   0.05  -0.10     0.13  -0.12   0.05
     4   6     0.03  -0.02  -0.01     0.05  -0.05  -0.10    -0.13   0.12   0.05
     5   6     0.05   0.05  -0.04     0.01   0.03  -0.14     0.08  -0.03  -0.07
     6   6    -0.07  -0.02  -0.02    -0.03  -0.03   0.07     0.01  -0.12   0.06
     7   1     0.41  -0.07  -0.10    -0.09   0.01   0.16     0.26   0.09   0.00
     8   1     0.10   0.11   0.01    -0.35  -0.17   0.00     0.28  -0.05  -0.22
     9   1     0.10   0.11  -0.01     0.35   0.17   0.00    -0.28   0.05  -0.22
    10   1     0.41  -0.07   0.10     0.09  -0.01   0.16    -0.26  -0.09   0.00
    11   8    -0.03  -0.03   0.00     0.00   0.00   0.19     0.00   0.00  -0.08
    12   1    -0.37   0.09  -0.38     0.29  -0.23   0.34     0.28   0.02   0.39
    13   1    -0.37   0.09   0.38    -0.29   0.23   0.34    -0.28  -0.02   0.39
                     13                     14                     15
                     A'                     A'                     A"
 Frequencies --   1044.9207              1092.7219              1093.5207
 Red. masses --      4.4170                 1.4059                 2.2148
 Frc consts  --      2.8415                 0.9891                 1.5604
 IR Inten    --     11.4360                 5.6030                 0.8884
 Raman Activ --     42.0427                 1.3636                 0.9960
 Depolar (P) --      0.0680                 0.2939                 0.7500
 Depolar (U) --      0.1274                 0.4543                 0.8571
  Atom  AN      X      Y      Z        X      Y      Z        X      Y      Z
     1   6     0.01   0.22   0.16     0.05   0.00   0.00     0.08   0.13   0.04
     2   6     0.01  -0.02   0.17    -0.09  -0.01   0.04     0.02   0.01  -0.08
     3   6     0.01  -0.20   0.06     0.04   0.03  -0.06    -0.08  -0.10   0.07
     4   6     0.01  -0.20  -0.06     0.04   0.03   0.06     0.08   0.10   0.07
     5   6     0.01  -0.02  -0.17    -0.09  -0.01  -0.04    -0.02  -0.01  -0.08
     6   6     0.01   0.22  -0.16     0.05   0.00   0.00    -0.08  -0.13   0.04
     7   1     0.02   0.19   0.27    -0.31   0.08   0.03    -0.27   0.25  -0.02
     8   1     0.22  -0.15   0.10     0.40  -0.24  -0.16    -0.21   0.00   0.02
     9   1     0.22  -0.15  -0.10     0.40  -0.24   0.16     0.21   0.00   0.02
    10   1     0.02   0.19  -0.27    -0.31   0.08  -0.03     0.27  -0.25  -0.02
    11   8    -0.08   0.03   0.00     0.02  -0.01   0.00     0.00   0.00  -0.01
    12   1     0.02  -0.34   0.19    -0.26   0.12  -0.24    -0.39   0.19  -0.27
    13   1     0.02  -0.34  -0.19    -0.26   0.12   0.24     0.39  -0.19  -0.27
                     16                     17                     18
                     A'                     A"                     A"
 Frequencies --   1127.8884              1149.8874              1197.8064
 Red. masses --      2.5697                 1.3477                 1.9680
 Frc consts  --      1.9261                 1.0499                 1.6636
 IR Inten    --     13.7687                 1.0980                 3.9434
 Raman Activ --      2.9043                 0.3317                 2.1665
 Depolar (P) --      0.2777                 0.7500                 0.7500
 Depolar (U) --      0.4346                 0.8571                 0.8571
  Atom  AN      X      Y      Z        X      Y      Z        X      Y      Z
     1   6    -0.05   0.04   0.12    -0.09   0.02   0.03    -0.04   0.08  -0.04
     2   6     0.04  -0.07   0.01     0.05   0.00  -0.05     0.04  -0.01   0.10
     3   6    -0.09   0.10  -0.09    -0.01   0.00   0.02    -0.05  -0.08  -0.09
     4   6    -0.09   0.10   0.09     0.01   0.00   0.02     0.05   0.08  -0.09
     5   6     0.04  -0.07  -0.01    -0.05   0.00  -0.05    -0.04   0.01   0.10
     6   6    -0.05   0.04  -0.12     0.09  -0.02   0.03     0.04  -0.08  -0.04
     7   1     0.18  -0.05   0.19     0.56  -0.12  -0.01     0.14   0.23  -0.38
     8   1    -0.27  -0.47   0.15    -0.32   0.12   0.11    -0.01  -0.09   0.13
     9   1    -0.27  -0.47  -0.15     0.32  -0.12   0.11     0.01   0.09   0.13
    10   1     0.18  -0.05  -0.19    -0.56   0.12  -0.01    -0.14  -0.23  -0.38
    11   8     0.17  -0.04   0.00     0.00   0.00  -0.01     0.00   0.00   0.09
    12   1    -0.17   0.12   0.03    -0.14   0.01  -0.06     0.41   0.17  -0.13
    13   1    -0.17   0.12  -0.03     0.14  -0.01  -0.06    -0.41  -0.17  -0.13
                     19                     20                     21
                     A'                     A"                     A'
 Frequencies --   1286.0516              1340.1113              1348.8647
 Red. masses --      1.9129                 1.1849                 1.1964
 Frc consts  --      1.8640                 1.2538                 1.2825
 IR Inten    --      6.2430                 0.1798                 1.0852
 Raman Activ --      3.0864                 4.7752                 3.2048
 Depolar (P) --      0.4091                 0.7500                 0.4119
 Depolar (U) --      0.5807                 0.8571                 0.5835
  Atom  AN      X      Y      Z        X      Y      Z        X      Y      Z
     1   6     0.01   0.00  -0.04     0.01  -0.01   0.03     0.01  -0.04   0.06
     2   6     0.02   0.07   0.02     0.01   0.05  -0.02     0.00   0.03  -0.01
     3   6    -0.10  -0.06  -0.08    -0.02  -0.03  -0.04    -0.03   0.01   0.00
     4   6    -0.10  -0.06   0.08     0.02   0.03  -0.04    -0.03   0.01   0.00
     5   6     0.02   0.07  -0.02    -0.01  -0.05  -0.02     0.00   0.03   0.01
     6   6     0.01   0.00   0.04    -0.01   0.01   0.03     0.01  -0.04  -0.06
     7   1    -0.06   0.15  -0.29    -0.02  -0.11   0.24    -0.07  -0.27   0.52
     8   1     0.16   0.26  -0.04     0.12   0.55  -0.07     0.15   0.35  -0.08
     9   1     0.16   0.26   0.04    -0.12  -0.55  -0.07     0.15   0.35   0.08
    10   1    -0.06   0.15   0.29     0.02   0.11   0.24    -0.07  -0.27  -0.52
    11   8     0.13  -0.04   0.00     0.00   0.00   0.03     0.03  -0.01   0.00
    12   1    -0.32  -0.22   0.32     0.22   0.13  -0.18    -0.02   0.00   0.03
    13   1    -0.32  -0.22  -0.32    -0.22  -0.13  -0.18    -0.02   0.00  -0.03
                     22                     23                     24
                     A'                     A"                     A'
 Frequencies --   1466.8325              1487.7217              1602.7122
 Red. masses --      1.8002                 1.2829                 1.9015
 Frc consts  --      2.2821                 1.6730                 2.8777
 IR Inten    --      0.5748                 1.7427                14.1157
 Raman Activ --     11.1604                 2.6515                 0.7645
 Depolar (P) --      0.7480                 0.7500                 0.2700
 Depolar (U) --      0.8559                 0.8571                 0.4251
  Atom  AN      X      Y      Z        X      Y      Z        X      Y      Z
     1   6     0.01  -0.05   0.09     0.00  -0.02   0.02     0.00  -0.07   0.02
     2   6     0.01   0.09  -0.02     0.01  -0.02   0.03     0.00   0.16  -0.05
     3   6    -0.09  -0.08  -0.02    -0.05  -0.06  -0.07     0.03  -0.01   0.08
     4   6    -0.09  -0.08   0.02     0.05   0.06  -0.07     0.03  -0.01  -0.08
     5   6     0.01   0.09   0.02    -0.01   0.02   0.03     0.00   0.16   0.05
     6   6     0.01  -0.05  -0.09     0.00   0.02   0.02     0.00  -0.07  -0.02
     7   1    -0.08   0.12  -0.19    -0.01   0.10  -0.19    -0.04  -0.11   0.09
     8   1     0.08  -0.09  -0.04     0.07   0.31   0.01    -0.04  -0.54  -0.04
     9   1     0.08  -0.09   0.04    -0.07  -0.31   0.01    -0.04  -0.54   0.04
    10   1    -0.08   0.12   0.19     0.01  -0.10  -0.19    -0.04  -0.11  -0.09
    11   8     0.04   0.04   0.00     0.00   0.00  -0.01    -0.01  -0.01   0.00
    12   1     0.46   0.20  -0.37    -0.33  -0.24   0.41    -0.20  -0.22   0.23
    13   1     0.46   0.20   0.37     0.33   0.24   0.41    -0.20  -0.22  -0.23
                     25                     26                     27
                     A"                     A'                     A"
 Frequencies --   1606.7126              1676.7150              1757.0077
 Red. masses --      1.6839                 2.7001                 4.1700
 Frc consts  --      2.5611                 4.4725                 7.5847
 IR Inten    --      4.2056                 7.1475                 0.0060
 Raman Activ --      2.7174                12.1466                14.5891
 Depolar (P) --      0.7500                 0.6959                 0.7500
 Depolar (U) --      0.8571                 0.8207                 0.8571
  Atom  AN      X      Y      Z        X      Y      Z        X      Y      Z
     1   6    -0.01   0.05  -0.08     0.02  -0.04   0.22    -0.02  -0.21   0.12
     2   6     0.04   0.09   0.06    -0.04  -0.06  -0.09     0.03   0.27  -0.07
     3   6    -0.04  -0.08  -0.04     0.06   0.07   0.07    -0.02  -0.09  -0.01
     4   6     0.04   0.08  -0.04     0.06   0.07  -0.07     0.02   0.09  -0.01
     5   6    -0.04  -0.09   0.06    -0.04  -0.06   0.09    -0.03  -0.27  -0.07
     6   6     0.01  -0.05  -0.08     0.02  -0.04  -0.22     0.02   0.21   0.12
     7   1     0.01  -0.27   0.52    -0.03   0.31  -0.40    -0.07   0.06  -0.42
     8   1    -0.01  -0.27   0.09     0.01   0.27  -0.13    -0.04  -0.39  -0.05
     9   1     0.01   0.27   0.09     0.01   0.27   0.13     0.04   0.39  -0.05
    10   1    -0.01   0.27   0.52    -0.03   0.31   0.40     0.07  -0.06  -0.42
    11   8     0.00   0.00   0.00    -0.02  -0.01   0.00     0.00   0.00   0.00
    12   1    -0.12  -0.04   0.18    -0.19  -0.09   0.19     0.03   0.12  -0.02
    13   1     0.12   0.04   0.18    -0.19  -0.09  -0.19    -0.03  -0.12  -0.02
                     28                     29                     30
                     A"                     A'                     A"
 Frequencies --   3338.8532              3346.0681              3357.1873
 Red. masses --      1.0849                 1.0869                 1.0916
 Frc consts  --      7.1256                 7.1698                 7.2488
 IR Inten    --      0.0010                 1.6935                13.0530
 Raman Activ --     29.0287               126.2518                67.7750
 Depolar (P) --      0.7500                 0.6513                 0.7500
 Depolar (U) --      0.8571                 0.7888                 0.8571
  Atom  AN      X      Y      Z        X      Y      Z        X      Y      Z
     1   6    -0.01  -0.04  -0.02     0.01   0.02   0.01    -0.01  -0.04  -0.02
     2   6     0.01   0.00   0.03    -0.02   0.00  -0.05    -0.02   0.00  -0.04
     3   6     0.00   0.01   0.00     0.00  -0.01   0.00     0.00  -0.01   0.01
     4   6     0.00  -0.01   0.00     0.00  -0.01   0.00     0.00   0.01   0.01
     5   6    -0.01   0.00   0.03    -0.02   0.00   0.05     0.02   0.00  -0.04
     6   6     0.01   0.04  -0.02     0.01   0.02  -0.01     0.01   0.04  -0.02
     7   1     0.11   0.47   0.25    -0.07  -0.27  -0.15     0.09   0.39   0.20
     8   1    -0.18   0.00  -0.41     0.24   0.00   0.57     0.21   0.00   0.48
     9   1     0.18   0.00  -0.41     0.24   0.00  -0.57    -0.21   0.00   0.48
    10   1    -0.11  -0.47   0.25    -0.07  -0.27   0.15    -0.09  -0.39   0.20
    11   8     0.00   0.00   0.00     0.00   0.00   0.00     0.00   0.00   0.00
    12   1    -0.01   0.07   0.04    -0.02   0.09   0.05     0.02  -0.12  -0.06
    13   1     0.01  -0.07   0.04    -0.02   0.09  -0.05    -0.02   0.12  -0.06
                     31                     32                     33
                     A'                     A"                     A'
 Frequencies --   3371.2965              3398.1859              3407.7969
 Red. masses --      1.0951                 1.0936                 1.0951
 Frc consts  --      7.3336                 7.4406                 7.4932
 IR Inten    --     20.0767                 9.9208                14.1224
 Raman Activ --    147.6144                61.2483               200.9266
 Depolar (P) --      0.0888                 0.7500                 0.1123
 Depolar (U) --      0.1631                 0.8571                 0.2019
  Atom  AN      X      Y      Z        X      Y      Z        X      Y      Z
     1   6    -0.01  -0.05  -0.03     0.00   0.00   0.00     0.00   0.01   0.00
     2   6    -0.01   0.00  -0.03    -0.01   0.00  -0.01     0.01   0.00   0.01
     3   6     0.00  -0.01   0.00    -0.01   0.06  -0.02     0.01  -0.05   0.03
     4   6     0.00  -0.01   0.00     0.01  -0.06  -0.02     0.01  -0.05  -0.03
     5   6    -0.01   0.00   0.03     0.01   0.00  -0.01     0.01   0.00  -0.01
     6   6    -0.01  -0.05   0.03     0.00   0.00   0.00     0.00   0.01   0.00
     7   1     0.13   0.54   0.29     0.00   0.02   0.01    -0.01  -0.05  -0.03
     8   1     0.12   0.00   0.28     0.06   0.00   0.14    -0.06   0.00  -0.14
     9   1     0.12   0.00  -0.28    -0.06   0.00   0.14    -0.06   0.00   0.14
    10   1     0.13   0.54  -0.29     0.00  -0.02   0.01    -0.01  -0.05   0.03
    11   8     0.00   0.00   0.00     0.00   0.00   0.00     0.00   0.00   0.00
    12   1    -0.02   0.11   0.06    -0.10   0.61   0.30    -0.10   0.61   0.30
    13   1    -0.02   0.11  -0.06     0.10  -0.61   0.30    -0.10   0.61  -0.30

 -------------------
 - Thermochemistry -
 -------------------
 Temperature   298.150 Kelvin.  Pressure   1.00000 Atm.
 Atom     1 has atomic number  6 and mass  12.00000
 Atom     2 has atomic number  6 and mass  12.00000
 Atom     3 has atomic number  6 and mass  12.00000
 Atom     4 has atomic number  6 and mass  12.00000
 Atom     5 has atomic number  6 and mass  12.00000
 Atom     6 has atomic number  6 and mass  12.00000
 Atom     7 has atomic number  1 and mass   1.00783
 Atom     8 has atomic number  1 and mass   1.00783
 Atom     9 has atomic number  1 and mass   1.00783
 Atom    10 has atomic number  1 and mass   1.00783
 Atom    11 has atomic number  8 and mass  15.99491
 Atom    12 has atomic number  1 and mass   1.00783
 Atom    13 has atomic number  1 and mass   1.00783
 Molecular mass:    94.04186 amu.
 Principal axes and moments of inertia in atomic units:
                           1         2         3
     Eigenvalues --   411.46155 480.04591 781.80769
           X            0.38534   0.00000   0.92277
           Y            0.92277   0.00000  -0.38534
           Z            0.00000   1.00000   0.00000
 This molecule is an asymmetric top.
 Rotational symmetry number  1.
 Rotational temperatures (Kelvin)      0.21050     0.18043     0.11079
 Rotational constants (GHZ):           4.38617     3.75952     2.30842
    1 imaginary frequencies ignored.
 Zero-point vibrational energy     289580.3 (Joules/Mol)
                                   69.21135 (Kcal/Mol)
 Warning -- explicit consideration of   4 degrees of freedom as
           vibrations may cause significant error
 Vibrational temperatures:    466.81   532.21   740.64   786.44  1044.38
          (Kelvin)           1134.20  1173.97  1297.93  1375.12  1388.66
                             1447.80  1503.41  1572.18  1573.33  1622.78
                             1654.43  1723.37  1850.34  1928.12  1940.71
                             2110.44  2140.50  2305.94  2311.70  2412.42
                             2527.94  4803.86  4814.24  4830.24  4850.54
                             4889.23  4903.05
 
 Zero-point correction=                           0.110295 (Hartree/Particle)
 Thermal correction to Energy=                    0.114891
 Thermal correction to Enthalpy=                  0.115835
 Thermal correction to Gibbs Free Energy=         0.081991
 Sum of electronic and zero-point Energies=           -303.641233
 Sum of electronic and thermal Energies=              -303.636638
 Sum of electronic and thermal Enthalpies=            -303.635694
 Sum of electronic and thermal Free Energies=         -303.669538
 
                     E (Thermal)             CV                S
                      KCal/Mol        Cal/Mol-Kelvin    Cal/Mol-Kelvin
 Total                   72.095             17.626             71.231
 Electronic               0.000              0.000              0.000
 Translational            0.889              2.981             39.535
 Rotational               0.889              2.981             26.538
 Vibrational             70.318             11.665              5.158
 Vibration     1          0.709              1.627              1.288
 Vibration     2          0.742              1.534              1.080
 Vibration     3          0.870              1.217              0.622
 Vibration     4          0.902              1.147              0.551
                       Q            Log10(Q)             Ln(Q)
 Total Bot       0.193566D-37        -37.713171        -86.837786
 Total V=0       0.104481D+14         13.019039         29.977445
 Vib (Bot)       0.383874D-50        -50.415811       -116.086694
 Vib (Bot)    1  0.577837D+00         -0.238194         -0.548463
 Vib (Bot)    2  0.492207D+00         -0.307852         -0.708855
 Vib (Bot)    3  0.315063D+00         -0.501602         -1.154982
 Vib (Bot)    4  0.288042D+00         -0.540544         -1.244648
 Vib (V=0)       0.207205D+01          0.316400          0.728537
 Vib (V=0)    1  0.126413D+01          0.101792          0.234385
 Vib (V=0)    2  0.120162D+01          0.079766          0.183669
 Vib (V=0)    3  0.109099D+01          0.037819          0.087082
 Vib (V=0)    4  0.107703D+01          0.032229          0.074211
 Electronic      0.100000D+01          0.000000          0.000000
 Translational   0.358457D+08          7.554437         17.394734
 Rotational      0.140670D+06          5.148202         11.854174
 ***** Axes restored to original set *****
 -------------------------------------------------------------------
 Center     Atomic                   Forces (Hartrees/Bohr)
 Number     Number              X              Y              Z
 -------------------------------------------------------------------
      1        6           0.000000844    0.000014990   -0.000005965
      2        6           0.000022805   -0.000013082    0.000000135
      3        6          -0.000042088   -0.000005141    0.000065018
      4        6          -0.000042088   -0.000005141   -0.000065018
      5        6           0.000022805   -0.000013082   -0.000000135
      6        6           0.000000844    0.000014990    0.000005965
      7        1           0.000004727   -0.000003521    0.000003599
      8        1          -0.000033761    0.000006792   -0.000008813
      9        1          -0.000033761    0.000006792    0.000008813
     10        1           0.000004727   -0.000003521   -0.000003599
     11        8           0.000101192   -0.000006092    0.000000000
     12        1          -0.000003122    0.000003008   -0.000000628
     13        1          -0.000003122    0.000003008    0.000000628
 -------------------------------------------------------------------
 Cartesian Forces:  Max     0.000101192 RMS     0.000026259

 GradGradGradGradGradGradGradGradGradGradGradGradGradGradGradGradGradGrad
 Berny optimization.
 Search for a local minimum.
 Step number   1 out of a maximum of    2
 All quantities printed in internal units (Hartrees-Bohrs-Radians)
 Second derivative matrix not updated -- analytic derivatives used.
 ITU=  0
     Eigenvalues ---   -0.19461   0.01412   0.01711   0.02969   0.03441
     Eigenvalues ---    0.04636   0.06044   0.06338   0.06810   0.06908
     Eigenvalues ---    0.07754   0.10023   0.10764   0.11961   0.17329
     Eigenvalues ---    0.17761   0.19979   0.22346   0.22551   0.26623
     Eigenvalues ---    0.34134   0.34841   0.46688   0.56411   0.76837
     Eigenvalues ---    0.78454   0.86619   1.04919   1.11259   1.17829
     Eigenvalues ---    1.19733   1.29138   1.44822
 Eigenvalue     1 is  -1.95D-01 should be greater than     0.000000 Eigenvector:
                          Z4        Z3        X11       X3        X4
   1                   -0.55538   0.55538  -0.34579   0.22186   0.22186
                          X8        X9        Z1        Z6        Y4
   1                   -0.13974  -0.13974  -0.12143   0.12143  -0.11565
 Angle between quadratic step and forces=  68.97 degrees.
 ClnCor:  largest displacement from symmetrization is 9.03D-11 for atom    10.
 Linear search not attempted -- first point.
 ClnCor:  largest displacement from symmetrization is 3.11D-15 for atom    11.
 B after Tr=     0.000089   -0.000035    0.000000
         Rot=    1.000000    0.000000    0.000000    0.000006 Ang=   0.00 deg.
 Variable       Old X    -DE/DX   Delta X   Delta X   Delta X     New X
                                 (Linear)    (Quad)   (Total)
    X1       -0.63805   0.00000   0.00000   0.00023   0.00029  -0.63776
    Y1       -2.57632   0.00001   0.00000   0.00000  -0.00003  -2.57635
    Z1        1.32623  -0.00001   0.00000  -0.00001  -0.00001   1.32622
    X2       -0.63805   0.00002   0.00000  -0.00010  -0.00002  -0.63806
    Y2       -0.39166  -0.00001   0.00000   0.00004   0.00002  -0.39165
    Z2        2.71527   0.00000   0.00000  -0.00007  -0.00007   2.71520
    X3        0.19296  -0.00004   0.00000   0.00003   0.00015   0.19310
    Y3        1.89808  -0.00001   0.00000  -0.00004  -0.00008   1.89800
    Z3        1.72039   0.00007   0.00000  -0.00005  -0.00005   1.72034
    X4        0.19296  -0.00004   0.00000   0.00003   0.00015   0.19310
    Y4        1.89808  -0.00001   0.00000  -0.00004  -0.00008   1.89800
    Z4       -1.72039  -0.00007   0.00000   0.00005   0.00005  -1.72034
    X5       -0.63805   0.00002   0.00000  -0.00010  -0.00002  -0.63806
    Y5       -0.39166  -0.00001   0.00000   0.00004   0.00002  -0.39165
    Z5       -2.71527   0.00000   0.00000   0.00007   0.00007  -2.71520
    X6       -0.63805   0.00000   0.00000   0.00023   0.00029  -0.63776
    Y6       -2.57632   0.00001   0.00000   0.00000  -0.00003  -2.57635
    Z6       -1.32623   0.00001   0.00000   0.00001   0.00001  -1.32622
    X7       -1.06841   0.00000   0.00000   0.00028   0.00032  -1.06810
    Y7       -4.32417   0.00000   0.00000  -0.00002  -0.00004  -4.32421
    Z7        2.25913   0.00000   0.00000   0.00001   0.00001   2.25914
    X8       -1.43965  -0.00003   0.00000  -0.00114  -0.00106  -1.44071
    Y8       -0.38830   0.00001   0.00000   0.00026   0.00024  -0.38806
    Z8        4.57818  -0.00001   0.00000  -0.00051  -0.00051   4.57767
    X9       -1.43965  -0.00003   0.00000  -0.00114  -0.00106  -1.44071
    Y9       -0.38830   0.00001   0.00000   0.00026   0.00024  -0.38806
    Z9       -4.57818   0.00001   0.00000   0.00051   0.00051  -4.57767
   X10       -1.06841   0.00000   0.00000   0.00028   0.00032  -1.06810
   Y10       -4.32417   0.00000   0.00000  -0.00002  -0.00004  -4.32421
   Z10       -2.25913   0.00000   0.00000  -0.00001  -0.00001  -2.25914
   X11        2.28056   0.00010   0.00000   0.00036   0.00047   2.28103
   Y11        1.86359  -0.00001   0.00000  -0.00022  -0.00028   1.86331
   Z11        0.00000   0.00000   0.00000   0.00000   0.00000   0.00000
   X12       -0.11541   0.00000   0.00000  -0.00004   0.00009  -0.11531
   Y12        3.67756   0.00000   0.00000   0.00007   0.00003   3.67759
   Z12       -2.62464   0.00000   0.00000   0.00030   0.00030  -2.62434
   X13       -0.11541   0.00000   0.00000  -0.00004   0.00009  -0.11531
   Y13        3.67756   0.00000   0.00000   0.00007   0.00003   3.67759
   Z13        2.62464   0.00000   0.00000  -0.00030  -0.00030   2.62434
         Item               Value     Threshold  Converged?
 Maximum Force            0.000101     0.000450     YES
 RMS     Force            0.000026     0.000300     YES
 Maximum Displacement     0.001059     0.001800     YES
 RMS     Displacement     0.000313     0.001200     YES
 Predicted change in Energy=-6.248898D-08
 Optimization completed.
    -- Stationary point found.
 GradGradGradGradGradGradGradGradGradGradGradGradGradGradGradGradGradGrad

 1\1\GINC-QC0019\Freq\RHF\3-21G\C6H6O1\ELIOT\05-Oct-2018\0\\# freq hf/3
 -21g\\ts-hf-321g.log\\0,1\C,-0.33764,-1.36333,0.70181\C,-0.33764,-0.20
 726,1.43686\C,0.10211,1.00442,0.91039\C,0.10211,1.00442,-0.91039\C,-0.
 33764,-0.20726,-1.43686\C,-0.33764,-1.36333,-0.70181\H,-0.56538,-2.288
 25,1.19548\H,-0.76183,-0.20548,2.42267\H,-0.76183,-0.20548,-2.42267\H,
 -0.56538,-2.28825,-1.19548\O,1.20682,0.98617,0.\H,-0.06107,1.94608,-1.
 3889\H,-0.06107,1.94608,1.3889\\Version=ES64L-G09RevE.01\State=1-A'\HF
 =-303.7515286\RMSD=7.314e-09\RMSF=2.626e-05\ZeroPoint=0.1102953\Therma
 l=0.1148908\Dipole=-1.0213948,0.0718573,0.\DipoleDeriv=-0.1561242,0.05
 22183,0.0387341,0.031365,0.0189816,-0.0979925,-0.0274087,-0.1604344,0.
 0400839,-0.1617826,0.0714176,-0.1615202,0.0358145,-0.0601598,-0.045680
 5,-0.1096575,-0.0594072,-0.1127149,0.1901488,0.0966154,0.0108285,-0.00
 77837,0.2892272,0.106996,-0.0769166,0.2501482,0.1712263,0.1901488,0.09
 66154,-0.0108285,-0.0077837,0.2892272,-0.106996,0.0769166,-0.2501482,0
 .1712263,-0.1617826,0.0714176,0.1615202,0.0358145,-0.0601598,0.0456805
 ,0.1096575,0.0594072,-0.1127149,-0.1561242,0.0522183,-0.0387341,0.0313
 65,0.0189816,0.0979925,0.0274087,0.1604344,0.0400839,0.1444926,-0.0619
 994,0.0505035,-0.0301225,-0.0521061,0.0674828,0.0206868,0.0666545,0.04
 05148,0.1408009,-0.0085712,0.0952251,-0.0123795,0.0884629,0.0035974,0.
 0815604,-0.0074714,-0.0491626,0.1408009,-0.0085712,-0.0952251,-0.01237
 95,0.0884629,-0.0035974,-0.0815604,0.0074714,-0.0491626,0.1444926,-0.0
 619994,-0.0505035,-0.0301225,-0.0521061,-0.0674828,-0.0206868,-0.06665
 45,0.0405148,-0.486312,-0.2275232,0.,-0.0290172,-0.5056106,0.,0.,0.,-0
 .2411423,0.0856206,-0.0359192,-0.0600408,-0.0023854,-0.0316006,0.05228
 5,-0.0499412,0.1005561,0.0306237,0.0856206,-0.0359192,0.0600408,-0.002
 3854,-0.0316006,-0.052285,0.0499412,-0.1005561,0.0306237\Polar=24.4563
 063,7.7142072,66.0065576,0.,0.,70.1809466\PolarDeriv=0.3859636,-3.2213
 844,2.2009356,0.9437527,-2.4790592,-1.5485814,-0.4493608,-0.6795829,-1
 .941348,0.3980389,0.4057801,-1.5798829,-0.9139308,-2.4029322,0.5247825
 ,0.1610692,0.3412255,-1.3629966,-0.6885945,1.0242484,-1.4290413,1.8311
 057,-1.1992388,3.0232162,1.1010651,2.5782525,3.3827457,-1.1311942,-2.1
 796168,-1.5673614,-1.1024122,0.2665814,1.6021088,1.8501644,-0.1544558,
 1.3130976,-1.2823111,1.0568001,2.1159088,3.0942924,2.2987688,1.6617238
 ,-0.83353,-1.5673912,-2.6860383,0.112404,2.1819545,2.7896592,2.3274919
 ,4.1904391,3.7458508,0.2368419,-1.5406241,2.9604705,-1.2823111,1.05680
 01,2.1159088,-3.0942924,-2.2987688,1.6617238,-0.83353,-1.5673912,-2.68
 60383,-0.112404,-2.1819545,2.7896592,-2.3274919,-4.1904391,-3.7458508,
 0.2368419,-1.5406241,-2.9604705,-0.6885945,1.0242484,-1.4290413,-1.831
 1057,1.1992388,3.0232162,1.1010651,2.5782525,3.3827457,1.1311942,2.179
 6168,-1.5673614,1.1024122,-0.2665814,-1.6021088,1.8501644,-0.1544558,-
 1.3130976,0.3859636,-3.2213844,2.2009356,-0.9437527,2.4790592,-1.54858
 14,-0.4493608,-0.6795829,-1.941348,-0.3980389,-0.4057801,-1.5798829,0.
 9139308,2.4029322,-0.5247825,0.1610692,0.3412255,1.3629966,-0.7499694,
 -1.4343765,-1.3945787,0.9713114,0.9413085,0.3520489,-0.4534011,-1.0975
 538,-7.6536313,0.4945404,3.2744015,-1.7560747,0.2363255,0.4226964,2.73
 08584,-0.3907282,-2.7264982,2.3786455,-1.7476976,-0.1239559,0.0137855,
 2.7312544,0.5932535,-3.1790079,0.0572006,-0.441931,0.0303989,0.0270851
 ,1.4286214,0.2070555,0.8579351,-0.1055092,0.2945259,-2.5301332,0.21330
 29,9.9122364,-1.7476976,-0.1239559,0.0137855,-2.7312544,-0.5932535,-3.
 1790079,0.0572006,-0.441931,0.0303989,-0.0270851,-1.4286214,0.2070555,
 -0.8579351,0.1055092,-0.2945259,-2.5301332,0.2133029,-9.9122364,-0.749
 9694,-1.4343765,-1.3945787,-0.9713114,-0.9413085,0.3520489,-0.4534011,
 -1.0975538,-7.6536313,-0.4945404,-3.2744015,-1.7560747,-0.2363255,-0.4
 226964,-2.7308584,-0.3907282,-2.7264982,-2.3786455,9.2053785,1.8790113
 ,-1.3467476,0.0000002,0.0000014,1.3124915,-0.0375461,2.8750522,2.21376
 98,0.0000002,-0.0000001,-0.4682779,-0.0000007,-0.0000001,0.0000012,2.3
 46343,2.0840101,0.0000001,-0.520081,1.7591625,-0.8336352,-0.8277303,0.
 7126883,-0.9656446,0.5967998,-0.2293196,7.7609881,0.1600328,-3.8370944
 ,2.1407442,0.0768087,0.3572346,-2.7405921,-0.5003855,2.8250455,-2.1998
 669,-0.520081,1.7591625,-0.8336352,0.8277303,-0.7126883,-0.9656446,0.5
 967998,-0.2293196,7.7609881,-0.1600328,3.8370944,2.1407442,-0.0768087,
 -0.3572346,2.7405921,-0.5003855,2.8250455,2.1998669\HyperPolar=-14.622
 2039,-9.1035612,-33.0161937,-3.8548958,0.,0.,0.,-44.2126832,4.0154701,
 0.\PG=CS [SG(O1),X(C6H6)]\NImag=1\\0.19561786,0.08467308,0.81551179,-0
 .04909383,-0.01023733,0.70276882,-0.08891668,0.00806429,0.03489223,0.2
 8325235,-0.01887300,-0.31702095,-0.06204270,0.09540124,0.71768848,0.01
 065639,-0.14321280,-0.21502666,-0.19993104,0.06688027,0.73495507,0.009
 40813,-0.00425060,0.00971240,-0.11167738,-0.09767356,0.04385678,0.3142
 0663,-0.00984004,-0.07959430,-0.04184872,-0.07246240,-0.28722305,0.086
 76724,0.07574939,0.77793802,-0.00845615,0.04472328,0.10908643,0.028275
 32,-0.03492232,-0.14170567,-0.21778856,0.12631339,0.30549734,-0.004856
 95,0.01460380,0.00510877,-0.01120385,-0.02014801,0.01572683,0.01602439
 ,0.00749266,-0.06375469,0.31420663,-0.00083639,-0.03121737,-0.05212159
 ,0.01513725,0.05664353,0.01090247,0.00749266,-0.05098521,0.07428350,0.
 07574939,0.77793802,0.00174337,-0.04716462,-0.09624040,0.01041821,0.11
 831021,-0.01033851,0.06375469,-0.07428350,0.07514183,0.21778856,-0.126
 31339,0.30549734,0.01014976,0.01292741,0.01891610,-0.00225529,-0.01711
 104,-0.00039094,-0.01120385,0.01513725,-0.01041821,-0.11167738,-0.0724
 6240,-0.02827532,0.28325235,0.00866392,0.04743457,0.10520735,-0.017111
 04,-0.09766777,-0.00981967,-0.02014801,0.05664353,-0.11831021,-0.09767
 356,-0.28722305,0.03492232,0.09540124,0.71768848,-0.00207200,0.0314433
 5,-0.04080175,0.00039094,0.00981967,-0.00395435,-0.01572683,-0.0109024
 7,-0.01033851,-0.04385678,-0.08676724,-0.14170567,0.19993104,-0.066880
 27,0.73495507,-0.07898760,-0.01647915,-0.01685818,0.01014976,0.0086639
 2,0.00207200,-0.00485695,-0.00083639,-0.00174337,0.00940813,-0.0098400
 4,0.00845615,-0.08891668,-0.01887300,-0.01065639,0.19561786,-0.0164791
 5,-0.15271860,-0.04617448,0.01292741,0.04743457,-0.03144335,0.01460380
 ,-0.03121737,0.04716462,-0.00425060,-0.07959430,-0.04472328,0.00806429
 ,-0.31702095,0.14321280,0.08467308,0.81551179,0.01685818,0.04617448,-0
 .29637888,-0.01891610,-0.10520735,-0.04080175,-0.00510877,0.05212159,-
 0.09624040,-0.00971240,0.04184872,0.10908643,-0.03489223,0.06204270,-0
 .21502666,0.04909383,0.01023733,0.70276882,-0.06389528,-0.05740381,0.0
 4186949,0.00460152,-0.00772878,0.00009228,0.00821803,0.00098877,-0.002
 76148,-0.00209893,0.00259088,0.00388801,0.00712883,-0.00268021,0.00141
 415,0.00363550,-0.00272347,-0.00624986,0.04878542,-0.05706457,-0.29599
 903,0.11710281,-0.00864995,-0.02155487,0.01776677,0.00063594,-0.003781
 08,-0.00326058,0.00034873,-0.00032835,-0.00195599,-0.00154910,0.002109
 87,-0.00092683,0.00017570,0.00408733,-0.00295485,0.06522527,0.31413551
 ,0.03294627,0.11901708,-0.13369717,-0.00577011,-0.02191811,0.01333663,
 0.00187438,-0.00414229,-0.00187018,-0.00001910,-0.00110040,-0.00060041
 ,-0.00047363,-0.00185078,-0.00559510,0.00922448,0.03517345,-0.01563229
 ,-0.03541875,-0.12679598,0.14250567,0.00615364,-0.01185905,-0.00986154
 ,-0.09350903,0.01342086,0.12137426,0.00155922,-0.00785361,0.02401492,0
 .00236313,-0.00753468,-0.01297756,0.00148382,0.01048652,-0.00145016,0.
 00705069,-0.00401784,0.00860319,-0.00490361,0.00070470,-0.00129453,0.0
 8759610,0.01205847,0.00724611,-0.03060890,-0.00132544,-0.07556407,0.00
 111251,-0.01561011,0.00764434,0.02338793,-0.00345097,0.00102643,0.0051
 8643,0.00008017,-0.00375185,-0.00009617,-0.00200108,-0.00362556,-0.003
 89802,0.00113997,0.00086864,0.00050527,0.00758133,0.06968664,0.0080984
 8,-0.00158137,-0.01851134,0.11996525,0.00732877,-0.31962363,0.00533974
 ,-0.00790032,-0.00259297,0.00147285,-0.00279719,-0.00512326,0.00074576
 ,0.00503663,0.00010407,0.00380570,-0.00498361,0.00480309,-0.00293923,-
 0.00011177,0.00051062,-0.13244571,0.00266744,0.33960191,0.00705069,-0.
 00401784,-0.00860319,0.00148382,0.01048652,0.00145016,0.00236313,-0.00
 753468,0.01297756,0.00155922,-0.00785361,-0.02401492,-0.09350903,0.013
 42086,-0.12137426,0.00615364,-0.01185905,0.00986154,0.00061163,-0.0002
 8456,-0.00058272,-0.00148212,0.00037898,-0.00072983,0.08759610,-0.0020
 0108,-0.00362556,0.00389802,0.00008017,-0.00375185,0.00009617,-0.00345
 097,0.00102643,-0.00518643,-0.01561011,0.00764434,-0.02338793,-0.00132
 544,-0.07556407,-0.00111251,0.01205847,0.00724611,0.03060890,-0.000933
 61,0.00020240,0.00139683,0.00037898,0.00002785,0.00015542,0.00758133,0
 .06968664,-0.00380570,0.00498361,0.00480309,-0.00074576,-0.00503663,0.
 00010407,-0.00147285,0.00279719,-0.00512326,-0.00533974,0.00790032,-0.
 00259297,-0.11996525,-0.00732877,-0.31962363,-0.00809848,0.00158137,-0
 .01851134,0.00023364,-0.00004143,-0.00043466,0.00072983,-0.00015542,0.
 00025112,0.13244571,-0.00266744,0.33960191,0.00363550,-0.00272347,0.00
 624986,0.00712883,-0.00268021,-0.00141415,-0.00209893,0.00259088,-0.00
 388801,0.00821803,0.00098877,0.00276148,0.00460152,-0.00772878,-0.0000
 9228,-0.06389528,-0.05740381,-0.04186949,-0.00423136,0.00156220,-0.000
 12655,0.00061163,-0.00093361,-0.00023364,-0.00490361,0.00113997,0.0029
 3923,0.04878542,0.00017570,0.00408733,0.00295485,-0.00154910,0.0021098
 7,0.00092683,0.00034873,-0.00032835,0.00195599,0.00063594,-0.00378108,
 0.00326058,-0.00864995,-0.02155487,-0.01776677,-0.05706457,-0.29599903
 ,-0.11710281,0.00156220,0.00098811,-0.00020613,-0.00028456,0.00020240,
 0.00004143,0.00070470,0.00086864,0.00011177,0.06522527,0.31413551,-0.0
 0922448,-0.03517345,-0.01563229,0.00047363,0.00185078,-0.00559510,0.00
 001910,0.00110040,-0.00060041,-0.00187438,0.00414229,-0.00187018,0.005
 77011,0.02191811,0.01333663,-0.03294627,-0.11901708,-0.13369717,0.0001
 2655,0.00020613,0.00093802,0.00058272,-0.00139683,-0.00043466,0.001294
 53,-0.00050527,0.00051062,0.03541875,0.12679598,0.14250567,0.00137046,
 -0.01970329,-0.03473909,-0.00591251,0.04579134,0.01316447,-0.16727804,
 -0.02637076,0.21280385,-0.16727805,-0.02637076,-0.21280386,-0.00591249
 ,0.04579135,-0.01316446,0.00137046,-0.01970331,0.03473909,0.00242182,-
 0.00055666,0.00006518,-0.00425694,0.00129719,-0.00198635,-0.00425694,0
 .00129719,0.00198635,0.00242181,-0.00055666,-0.00006518,0.36979665,0.0
 0073234,0.00725085,0.00887934,-0.03462847,-0.00475147,0.01864515,0.006
 80741,-0.06732783,-0.02594113,0.00680741,-0.06732783,0.02594113,-0.034
 62847,-0.00475147,-0.01864515,0.00073233,0.00725084,-0.00887934,0.0003
 0593,0.00028415,0.00065876,-0.00135984,-0.00381608,0.00112512,-0.00135
 983,-0.00381608,-0.00112512,0.00030593,0.00028415,-0.00065876,-0.00113
 759,0.12150824,-0.00237900,-0.01213452,0.00184360,0.03383276,0.0088306
 1,-0.02688647,0.09474908,-0.00705928,-0.11183918,-0.09474911,0.0070592
 5,-0.11183920,-0.03383275,-0.00883062,-0.02688645,0.00237900,0.0121345
 5,0.00184356,-0.00058962,0.00036063,-0.00000245,0.00491509,0.00364654,
 0.00105084,-0.00491508,-0.00364654,0.00105084,0.00058961,-0.00036063,-
 0.00000245,0.00000002,0.,0.30288456,-0.00088591,-0.00121393,-0.0001106
 9,0.00234046,0.00043554,-0.00060563,-0.00384269,-0.00781266,0.00575749
 ,-0.05082171,0.03075157,-0.02498133,0.00451799,-0.00998483,0.00605141,
 0.00415640,-0.00261740,-0.00251773,-0.00030757,0.00010947,-0.00003816,
 -0.00007953,0.00020095,-0.00001597,-0.00258698,0.00058415,0.00107707,0
 .00003400,-0.00065718,0.00038676,-0.01124311,0.02871143,-0.02561397,0.
 05782753,0.00002159,0.00149564,0.00004791,-0.00053594,-0.00130417,0.00
 048755,-0.00153032,0.00213530,-0.00477305,0.03702566,-0.32493042,0.125
 43501,0.00465196,-0.01503823,0.01910913,-0.00123086,-0.00285047,-0.004
 94343,-0.00002675,-0.00002641,0.00015157,0.00010747,0.00004593,0.00008
 220,0.00022971,0.00000923,-0.00093724,-0.00031637,-0.00098627,0.000889
 27,0.00011097,0.00760627,-0.00178188,-0.03907679,0.33333197,0.00064072
 ,0.00117527,-0.00083440,-0.00012664,-0.00000057,0.00108061,-0.00749381
 ,0.00871043,-0.00257704,-0.02828465,0.13167366,-0.11683798,0.00275866,
 -0.01610735,0.01445575,-0.00408776,-0.00198703,-0.00137904,0.00018547,
 -0.00002803,0.00012951,-0.00003154,0.00015468,-0.00013061,0.00215897,0
 .00050546,0.00009481,-0.00014935,-0.00063913,0.00041181,-0.00749795,0.
 01138669,-0.01560860,0.04126932,-0.13430555,0.12155125,0.00415640,-0.0
 0261740,0.00251773,0.00451799,-0.00998483,-0.00605141,-0.05082171,0.03
 075157,0.02498133,-0.00384269,-0.00781266,-0.00575749,0.00234046,0.000
 43554,0.00060563,-0.00088591,-0.00121393,0.00011069,0.00003400,-0.0006
 5718,-0.00038676,-0.00258698,0.00058415,-0.00107707,-0.00007953,0.0002
 0095,0.00001597,-0.00030757,0.00010947,0.00003816,-0.01124310,0.028711
 44,0.02561399,0.00089114,0.00056967,0.00065855,0.05782753,-0.00123086,
 -0.00285047,0.00494343,0.00465196,-0.01503823,-0.01910913,0.03702566,-
 0.32493042,-0.12543501,-0.00153032,0.00213530,0.00477305,-0.00053594,-
 0.00130417,-0.00048755,0.00002159,0.00149564,-0.00004791,-0.00031637,-
 0.00098627,-0.00088927,0.00022971,0.00000923,0.00093724,0.00010747,0.0
 0004593,-0.00008220,-0.00002675,-0.00002641,-0.00015157,0.00011098,0.0
 0760627,0.00178189,0.00056967,0.00051162,-0.00053853,-0.03907679,0.333
 33197,0.00408776,0.00198703,-0.00137904,-0.00275866,0.01610735,0.01445
 575,0.02828465,-0.13167366,-0.11683798,0.00749381,-0.00871043,-0.00257
 704,0.00012664,0.00000057,0.00108061,-0.00064072,-0.00117527,-0.000834
 40,0.00014935,0.00063913,0.00041181,-0.00215897,-0.00050546,0.00009481
 ,0.00003154,-0.00015468,-0.00013061,-0.00018547,0.00002803,0.00012951,
 0.00749795,-0.01138669,-0.01560860,-0.00065855,0.00053853,-0.00035606,
 -0.04126932,0.13430555,0.12155125\\-0.00000084,-0.00001499,0.00000596,
 -0.00002280,0.00001308,-0.00000014,0.00004209,0.00000514,-0.00006502,0
 .00004209,0.00000514,0.00006502,-0.00002280,0.00001308,0.00000014,-0.0
 0000084,-0.00001499,-0.00000596,-0.00000473,0.00000352,-0.00000360,0.0
 0003376,-0.00000679,0.00000881,0.00003376,-0.00000679,-0.00000881,-0.0
 0000473,0.00000352,0.00000360,-0.00010119,0.00000609,0.,0.00000312,-0.
 00000301,0.00000063,0.00000312,-0.00000301,-0.00000063\\\@


 A politician is a person who can make waves and then
 make you think he's the only one who can save the ship.
 -- Ivern Ball
 Job cpu time:       0 days  0 hours  0 minutes  4.5 seconds.
 File lengths (MBytes):  RWF=     10 Int=      0 D2E=      0 Chk=      1 Scr=      1
 Normal termination of Gaussian 09 at Fri Oct  5 10:56:36 2018.
