 Entering Gaussian System, Link 0=/home/eliot/software/g09E01/g09
 Initial command:
 /home/eliot/software/g09E01/l1.exe "/tmp/Gau-16016.inp" -scrdir="/tmp/"
 Entering Link 1 = /home/eliot/software/g09E01/l1.exe PID=     16018.
  
 Copyright (c) 1988,1990,1992,1993,1995,1998,2003,2009,2015,
            Gaussian, Inc.  All Rights Reserved.
  
 This is part of the Gaussian(R) 09 program.  It is based on
 the Gaussian(R) 03 system (copyright 2003, Gaussian, Inc.),
 the Gaussian(R) 98 system (copyright 1998, Gaussian, Inc.),
 the Gaussian(R) 94 system (copyright 1995, Gaussian, Inc.),
 the Gaussian 92(TM) system (copyright 1992, Gaussian, Inc.),
 the Gaussian 90(TM) system (copyright 1990, Gaussian, Inc.),
 the Gaussian 88(TM) system (copyright 1988, Gaussian, Inc.),
 the Gaussian 86(TM) system (copyright 1986, Carnegie Mellon
 University), and the Gaussian 82(TM) system (copyright 1983,
 Carnegie Mellon University). Gaussian is a federally registered
 trademark of Gaussian, Inc.
  
 This software contains proprietary and confidential information,
 including trade secrets, belonging to Gaussian, Inc.
  
 This software is provided under written license and may be
 used, copied, transmitted, or stored only in accord with that
 written license.
  
 The following legend is applicable only to US Government
 contracts under FAR:
  
                    RESTRICTED RIGHTS LEGEND
  
 Use, reproduction and disclosure by the US Government is
 subject to restrictions as set forth in subparagraphs (a)
 and (c) of the Commercial Computer Software - Restricted
 Rights clause in FAR 52.227-19.
  
 Gaussian, Inc.
 340 Quinnipiac St., Bldg. 40, Wallingford CT 06492
  
  
 ---------------------------------------------------------------
 Warning -- This program may not be used in any manner that
 competes with the business of Gaussian, Inc. or will provide
 assistance to any competitor of Gaussian, Inc.  The licensee
 of this program is prohibited from giving any competitor of
 Gaussian, Inc. access to this program.  By using this program,
 the user acknowledges that Gaussian, Inc. is engaged in the
 business of creating and licensing software in the field of
 computational chemistry and represents and warrants to the
 licensee that it is not a competitor of Gaussian, Inc. and that
 it will not use this program in any manner prohibited above.
 ---------------------------------------------------------------
  

 Cite this work as:
 Gaussian 09, Revision E.01,
 M. J. Frisch, G. W. Trucks, H. B. Schlegel, G. E. Scuseria, 
 M. A. Robb, J. R. Cheeseman, G. Scalmani, V. Barone, B. Mennucci, 
 G. A. Petersson, H. Nakatsuji, M. Caricato, X. Li, H. P. Hratchian, 
 A. F. Izmaylov, J. Bloino, G. Zheng, J. L. Sonnenberg, M. Hada, 
 M. Ehara, K. Toyota, R. Fukuda, J. Hasegawa, M. Ishida, T. Nakajima, 
 Y. Honda, O. Kitao, H. Nakai, T. Vreven, J. A. Montgomery, Jr., 
 J. E. Peralta, F. Ogliaro, M. Bearpark, J. J. Heyd, E. Brothers, 
 K. N. Kudin, V. N. Staroverov, T. Keith, R. Kobayashi, J. Normand, 
 K. Raghavachari, A. Rendell, J. C. Burant, S. S. Iyengar, J. Tomasi, 
 M. Cossi, N. Rega, J. M. Millam, M. Klene, J. E. Knox, J. B. Cross, 
 V. Bakken, C. Adamo, J. Jaramillo, R. Gomperts, R. E. Stratmann, 
 O. Yazyev, A. J. Austin, R. Cammi, C. Pomelli, J. W. Ochterski, 
 R. L. Martin, K. Morokuma, V. G. Zakrzewski, G. A. Voth, 
 P. Salvador, J. J. Dannenberg, S. Dapprich, A. D. Daniels, 
 O. Farkas, J. B. Foresman, J. V. Ortiz, J. Cioslowski, 
 and D. J. Fox, Gaussian, Inc., Wallingford CT, 2013.
 
 ******************************************
 Gaussian 09:  ES64L-G09RevE.01 30-Nov-2015
                 5-Oct-2018 
 ******************************************
 %nproc=4
 Will use up to    4 processors via shared memory.
 ----------------------
 # freq mp2/aug-cc-pvdz
 ----------------------
 1/10=4,30=1,38=1/1,3;
 2/12=2,17=6,18=5,40=1/2;
 3/5=16,7=10,11=9,16=1,25=1,30=1,71=2,140=1/1,2,3;
 4//1;
 5/5=2,38=5,98=1/2;
 8/6=3,8=1,10=1,19=11,30=-1/1;
 9/15=3,16=-3/6;
 11/6=1,8=1,15=11,17=12,24=-1,27=1,28=-2,29=300,32=6,42=3/1,2,10;
 10/6=2,21=1/2;
 8/6=4,8=1,10=1,19=11,30=-1/11,4;
 10/5=1,20=4/2;
 11/12=2,14=11,16=1,17=2,28=-2,42=3/2,10,12;
 6/7=2,8=2,9=2,10=2/1;
 7/8=1,10=1,12=2,25=1,44=2/1,2,3,16;
 1/10=4,30=1/3;
 99//99;
 -------------
 ts-mp2-sp.log
 -------------
 Symbolic Z-matrix:
 Charge =  0 Multiplicity = 1
 C                    -1.4209    0.70581   0.16632 
 C                    -0.30645   1.45966  -0.24861 
 C                     0.99622   0.93864  -0.22529 
 C                     0.99622  -0.93864  -0.2253 
 C                    -0.30645  -1.45966  -0.24861 
 C                    -1.4209   -0.70581   0.16632 
 H                    -2.38948   1.2188    0.28786 
 H                    -0.45767   2.45469  -0.70013 
 H                    -0.45767  -2.45469  -0.70014 
 H                    -2.38948  -1.2188    0.28786 
 O                     1.34735   0.        0.74899 
 H                     1.8445   -1.43074  -0.73815 
 H                     1.8445    1.43074  -0.73815 
 

 GradGradGradGradGradGradGradGradGradGradGradGradGradGradGradGradGradGrad
 Berny optimization.
 Initialization pass.
 Trust Radius=3.00D-01 FncErr=1.00D-07 GrdErr=1.00D-07
 Number of steps in this run=      2 maximum allowed number of steps=      2.
 GradGradGradGradGradGradGradGradGradGradGradGradGradGradGradGradGradGrad

                          Input orientation:                          
 ---------------------------------------------------------------------
 Center     Atomic      Atomic             Coordinates (Angstroms)
 Number     Number       Type             X           Y           Z
 ---------------------------------------------------------------------
      1          6           0       -1.420900    0.705810    0.166320
      2          6           0       -0.306450    1.459660   -0.248610
      3          6           0        0.996220    0.938640   -0.225290
      4          6           0        0.996220   -0.938640   -0.225300
      5          6           0       -0.306450   -1.459660   -0.248610
      6          6           0       -1.420900   -0.705810    0.166320
      7          1           0       -2.389480    1.218800    0.287860
      8          1           0       -0.457670    2.454690   -0.700130
      9          1           0       -0.457670   -2.454690   -0.700140
     10          1           0       -2.389480   -1.218800    0.287860
     11          8           0        1.347350    0.000000    0.748990
     12          1           0        1.844500   -1.430740   -0.738150
     13          1           0        1.844500    1.430740   -0.738150
 ---------------------------------------------------------------------
                    Distance matrix (angstroms):
                    1          2          3          4          5
     1  C    0.000000
     2  C    1.407997   0.000000
     3  C    2.459682   1.403194   0.000000
     4  C    2.949585   2.729347   1.877280   0.000000
     5  C    2.470511   2.919320   2.729347   1.403194   0.000000
     6  C    1.411620   2.470511   2.949584   2.459684   1.407997
     7  H    1.102759   2.164446   3.435808   4.047326   3.435253
     8  H    2.176495   1.103097   2.153527   3.722089   3.943206
     9  H    3.415747   3.943207   3.722092   2.153527   1.103101
    10  H    2.158018   3.435253   4.047324   3.435810   2.164446
    11  O    2.915627   2.420923   1.397698   1.397705   2.420923
    12  H    4.005715   3.636021   2.568378   1.106687   2.206144
    13  H    3.465029   2.206144   1.106692   2.568376   3.636021
                    6          7          8          9         10
     6  C    0.000000
     7  H    2.158018   0.000000
     8  H    3.415744   2.497086   0.000000
     9  H    2.176499   4.266446   4.909380   0.000000
    10  H    1.102759   2.437600   4.266444   2.497090   0.000000
    11  O    2.915627   3.957526   3.373952   3.373956   3.957526
    12  H    3.465029   5.098955   4.516414   2.519902   4.361674
    13  H    4.005715   4.361674   2.519902   4.516414   5.098955
                   11         12         13
    11  O    0.000000
    12  H    2.122678   0.000000
    13  H    2.122678   2.861480   0.000000
 Stoichiometry    C6H6O
 Framework group  C1[X(C6H6O)]
 Deg. of freedom    33
 Full point group                 C1      NOp   1
 Largest Abelian subgroup         C1      NOp   1
 Largest concise Abelian subgroup C1      NOp   1
                         Standard orientation:                         
 ---------------------------------------------------------------------
 Center     Atomic      Atomic             Coordinates (Angstroms)
 Number     Number       Type             X           Y           Z
 ---------------------------------------------------------------------
      1          6           0       -1.420899    0.705810    0.166319
      2          6           0       -0.306449    1.459660   -0.248611
      3          6           0        0.996221    0.938640   -0.225291
      4          6           0        0.996221   -0.938640   -0.225301
      5          6           0       -0.306449   -1.459660   -0.248611
      6          6           0       -1.420899   -0.705810    0.166319
      7          1           0       -2.389479    1.218800    0.287859
      8          1           0       -0.457669    2.454690   -0.700131
      9          1           0       -0.457669   -2.454690   -0.700141
     10          1           0       -2.389479   -1.218800    0.287859
     11          8           0        1.347351    0.000000    0.748989
     12          1           0        1.844501   -1.430740   -0.738151
     13          1           0        1.844501    1.430740   -0.738151
 ---------------------------------------------------------------------
 Rotational constants (GHZ):      4.2853452      3.6930166      2.2370040
 Standard basis: Aug-CC-pVDZ (5D, 7F)
 There are   229 symmetry adapted cartesian basis functions of A   symmetry.
 There are   215 symmetry adapted basis functions of A   symmetry.
   215 basis functions,   367 primitive gaussians,   229 cartesian basis functions
    25 alpha electrons       25 beta electrons
       nuclear repulsion energy       277.8012873845 Hartrees.
 NAtoms=   13 NActive=   13 NUniq=   13 SFac= 1.00D+00 NAtFMM=   60 NAOKFM=F Big=F
 Integral buffers will be    131072 words long.
 Raffenetti 1 integral format.
 Two-electron integral symmetry is turned on.
 One-electron integrals computed using PRISM.
 NBasis=   215 RedAO= T EigKep=  5.48D-06  NBF=   215
 NBsUse=   215 1.00D-06 EigRej= -1.00D+00 NBFU=   215
 ExpMin= 2.97D-02 ExpMax= 1.17D+04 ExpMxC= 4.01D+02 IAcc=3 IRadAn=         5 AccDes= 0.00D+00
 Harris functional with IExCor=  205 and IRadAn=       5 diagonalized for initial guess.
 HarFok:  IExCor=  205 AccDes= 0.00D+00 IRadAn=         5 IDoV= 1 UseB2=F ITyADJ=14
 ICtDFT=  3500011 ScaDFX=  1.000000  1.000000  1.000000  1.000000
 FoFCou: FMM=F IPFlag=           0 FMFlag=      100000 FMFlg1=           0
         NFxFlg=           0 DoJE=T BraDBF=F KetDBF=T FulRan=T
         wScrn=  0.000000 ICntrl=     500 IOpCl=  0 I1Cent=   200000004 NGrid=           0
         NMat0=    1 NMatS0=      1 NMatT0=    0 NMatD0=    1 NMtDS0=    0 NMtDT0=    0
 Petite list used in FoFCou.
 Requested convergence on RMS density matrix=1.00D-08 within 128 cycles.
 Requested convergence on MAX density matrix=1.00D-06.
 Requested convergence on             energy=1.00D-06.
 No special actions if energy rises.
 Initial convergence to 1.0D-05 achieved.  Increase integral accuracy.
 SCF Done:  E(RHF) =  -305.496838759     A.U. after   13 cycles
            NFock= 13  Conv=0.82D-08     -V/T= 2.0024
 ExpMin= 2.97D-02 ExpMax= 1.17D+04 ExpMxC= 4.01D+02 IAcc=3 IRadAn=         5 AccDes= 0.00D+00
 HarFok:  IExCor=  205 AccDes= 0.00D+00 IRadAn=         5 IDoV=-2 UseB2=F ITyADJ=14
 ICtDFT= 12500011 ScaDFX=  1.000000  1.000000  1.000000  1.000000
 Range of M.O.s used for correlation:     8   215
 NBasis=   215 NAE=    25 NBE=    25 NFC=     7 NFV=     0
 NROrb=    208 NOA=    18 NOB=    18 NVA=   190 NVB=   190

 **** Warning!!: The largest alpha MO coefficient is  0.78472181D+02

 Disk-based method using ON**2 memory for 18 occupieds at a time.
 Permanent disk used for amplitudes=    27949000 words.
 Estimated scratch disk usage=   403190387 words.
 Actual    scratch disk usage=   381652595 words.
 GetIJB would need an additional    28044172 words of memory to use all   4 processors.
 JobTyp=1 Pass  1:  I=   8 to  25 NPSUse=  2 ParTrn=F ParDer=T DoDerP=T.
Erroneous write. Write -1 instead of 229376.
fd = 4
orig len = 6287360 left = 229376
g_write
