 Entering Gaussian System, Link 0=/home/eliot/software/g09E01/g09
 Initial command:
 /home/eliot/software/g09E01/l1.exe "/tmp/Gau-15731.inp" -scrdir="/tmp/"
 Entering Link 1 = /home/eliot/software/g09E01/l1.exe PID=     15733.
  
 Copyright (c) 1988,1990,1992,1993,1995,1998,2003,2009,2015,
            Gaussian, Inc.  All Rights Reserved.
  
 This is part of the Gaussian(R) 09 program.  It is based on
 the Gaussian(R) 03 system (copyright 2003, Gaussian, Inc.),
 the Gaussian(R) 98 system (copyright 1998, Gaussian, Inc.),
 the Gaussian(R) 94 system (copyright 1995, Gaussian, Inc.),
 the Gaussian 92(TM) system (copyright 1992, Gaussian, Inc.),
 the Gaussian 90(TM) system (copyright 1990, Gaussian, Inc.),
 the Gaussian 88(TM) system (copyright 1988, Gaussian, Inc.),
 the Gaussian 86(TM) system (copyright 1986, Carnegie Mellon
 University), and the Gaussian 82(TM) system (copyright 1983,
 Carnegie Mellon University). Gaussian is a federally registered
 trademark of Gaussian, Inc.
  
 This software contains proprietary and confidential information,
 including trade secrets, belonging to Gaussian, Inc.
  
 This software is provided under written license and may be
 used, copied, transmitted, or stored only in accord with that
 written license.
  
 The following legend is applicable only to US Government
 contracts under FAR:
  
                    RESTRICTED RIGHTS LEGEND
  
 Use, reproduction and disclosure by the US Government is
 subject to restrictions as set forth in subparagraphs (a)
 and (c) of the Commercial Computer Software - Restricted
 Rights clause in FAR 52.227-19.
  
 Gaussian, Inc.
 340 Quinnipiac St., Bldg. 40, Wallingford CT 06492
  
  
 ---------------------------------------------------------------
 Warning -- This program may not be used in any manner that
 competes with the business of Gaussian, Inc. or will provide
 assistance to any competitor of Gaussian, Inc.  The licensee
 of this program is prohibited from giving any competitor of
 Gaussian, Inc. access to this program.  By using this program,
 the user acknowledges that Gaussian, Inc. is engaged in the
 business of creating and licensing software in the field of
 computational chemistry and represents and warrants to the
 licensee that it is not a competitor of Gaussian, Inc. and that
 it will not use this program in any manner prohibited above.
 ---------------------------------------------------------------
  

 Cite this work as:
 Gaussian 09, Revision E.01,
 M. J. Frisch, G. W. Trucks, H. B. Schlegel, G. E. Scuseria, 
 M. A. Robb, J. R. Cheeseman, G. Scalmani, V. Barone, B. Mennucci, 
 G. A. Petersson, H. Nakatsuji, M. Caricato, X. Li, H. P. Hratchian, 
 A. F. Izmaylov, J. Bloino, G. Zheng, J. L. Sonnenberg, M. Hada, 
 M. Ehara, K. Toyota, R. Fukuda, J. Hasegawa, M. Ishida, T. Nakajima, 
 Y. Honda, O. Kitao, H. Nakai, T. Vreven, J. A. Montgomery, Jr., 
 J. E. Peralta, F. Ogliaro, M. Bearpark, J. J. Heyd, E. Brothers, 
 K. N. Kudin, V. N. Staroverov, T. Keith, R. Kobayashi, J. Normand, 
 K. Raghavachari, A. Rendell, J. C. Burant, S. S. Iyengar, J. Tomasi, 
 M. Cossi, N. Rega, J. M. Millam, M. Klene, J. E. Knox, J. B. Cross, 
 V. Bakken, C. Adamo, J. Jaramillo, R. Gomperts, R. E. Stratmann, 
 O. Yazyev, A. J. Austin, R. Cammi, C. Pomelli, J. W. Ochterski, 
 R. L. Martin, K. Morokuma, V. G. Zakrzewski, G. A. Voth, 
 P. Salvador, J. J. Dannenberg, S. Dapprich, A. D. Daniels, 
 O. Farkas, J. B. Foresman, J. V. Ortiz, J. Cioslowski, 
 and D. J. Fox, Gaussian, Inc., Wallingford CT, 2013.
 
 ******************************************
 Gaussian 09:  ES64L-G09RevE.01 30-Nov-2015
                 5-Oct-2018 
 ******************************************
 %nproc=4
 Will use up to    4 processors via shared memory.
 -----------------
 # mp2/aug-cc-pvdz
 -----------------
 1/38=1/1;
 2/12=2,17=6,18=5,40=1/2;
 3/5=16,7=10,11=9,16=1,25=1,30=1/1,2,3;
 4//1;
 5/5=2,38=5/2;
 8/10=1/1;
 9/16=-3/6;
 6/7=2,8=2,9=2,10=2/1;
 99/5=1,9=1/99;
 ---------------
 benzox-bp86.log
 ---------------
 Symbolic Z-matrix:
 Charge =  0 Multiplicity = 1
 C                    -1.44547   0.72542   0.13014 
 C                    -0.3228    1.44093  -0.19331 
 C                     0.98052   0.76955  -0.31394 
 C                     0.98053  -0.76954  -0.31395 
 C                    -0.32279  -1.44093  -0.19331 
 C                    -1.44546  -0.72543   0.13014 
 H                    -2.40578   1.24761   0.27222 
 H                    -0.38084   2.52227  -0.39739 
 H                    -0.38082  -2.52227  -0.39738 
 H                    -2.40577  -1.24763   0.27223 
 O                     1.42976   0.        0.80919 
 H                     1.79399  -1.29761  -0.84891 
 H                     1.79398   1.29762  -0.8489 
 
                          Input orientation:                          
 ---------------------------------------------------------------------
 Center     Atomic      Atomic             Coordinates (Angstroms)
 Number     Number       Type             X           Y           Z
 ---------------------------------------------------------------------
      1          6           0       -1.445470    0.725420    0.130140
      2          6           0       -0.322800    1.440930   -0.193310
      3          6           0        0.980520    0.769550   -0.313940
      4          6           0        0.980530   -0.769540   -0.313950
      5          6           0       -0.322790   -1.440930   -0.193310
      6          6           0       -1.445460   -0.725430    0.130140
      7          1           0       -2.405780    1.247610    0.272220
      8          1           0       -0.380840    2.522270   -0.397390
      9          1           0       -0.380820   -2.522270   -0.397380
     10          1           0       -2.405770   -1.247630    0.272230
     11          8           0        1.429760    0.000000    0.809190
     12          1           0        1.793990   -1.297610   -0.848910
     13          1           0        1.793980    1.297620   -0.848900
 ---------------------------------------------------------------------
                    Distance matrix (angstroms):
                    1          2          3          4          5
     1  C    0.000000
     2  C    1.370023   0.000000
     3  C    2.466695   1.471036   0.000000
     4  C    2.884025   2.568930   1.539090   0.000000
     5  C    2.461321   2.881860   2.568928   1.471041   0.000000
     6  C    1.450850   2.461321   2.884017   2.466696   1.370018
     7  H    1.102300   2.143104   3.469748   3.984920   3.432756
     8  H    2.154158   1.101959   2.220876   3.563187   3.968875
     9  H    3.458214   3.968875   3.563185   2.220877   1.101957
    10  H    2.198930   3.432761   3.984918   3.469756   2.143105
    11  O    3.042087   2.480474   1.433682   1.433682   2.480467
    12  H    3.942752   3.522813   2.284968   1.107591   2.220610
    13  H    3.432196   2.220607   1.107591   2.284956   3.522807
                    6          7          8          9         10
     6  C    0.000000
     7  H    2.198929   0.000000
     8  H    3.458216   2.484656   0.000000
     9  H    2.154152   4.331376   5.044540   0.000000
    10  H    1.102306   2.495240   4.331383   2.484654   0.000000
    11  O    3.042079   4.068935   3.331059   3.331044   4.068931
    12  H    3.432195   5.037176   4.418737   2.536429   4.347118
    13  H    3.942743   4.347113   2.536429   4.418731   5.037175
                   11         12         13
    11  O    0.000000
    12  H    2.136762   0.000000
    13  H    2.136758   2.595230   0.000000
 Stoichiometry    C6H6O
 Framework group  C1[X(C6H6O)]
 Deg. of freedom    33
 Full point group                 C1      NOp   1
 Largest Abelian subgroup         C1      NOp   1
 Largest concise Abelian subgroup C1      NOp   1
                         Standard orientation:                         
 ---------------------------------------------------------------------
 Center     Atomic      Atomic             Coordinates (Angstroms)
 Number     Number       Type             X           Y           Z
 ---------------------------------------------------------------------
      1          6           0        1.445472   -0.725416    0.130140
      2          6           0        0.322804   -1.440929   -0.193310
      3          6           0       -0.980518   -0.769553   -0.313940
      4          6           0       -0.980532    0.769537   -0.313950
      5          6           0        0.322787    1.440931   -0.193310
      6          6           0        1.445458    0.725434    0.130140
      7          1           0        2.405784   -1.247604    0.272220
      8          1           0        0.380847   -2.522269   -0.397390
      9          1           0        0.380814    2.522271   -0.397380
     10          1           0        2.405767    1.247636    0.272230
     11          8           0       -1.429760   -0.000004    0.809190
     12          1           0       -1.793993    1.297605   -0.848910
     13          1           0       -1.793976   -1.297625   -0.848900
 ---------------------------------------------------------------------
 Rotational constants (GHZ):      4.5160105      3.5379722      2.2663557
 Standard basis: Aug-CC-pVDZ (5D, 7F)
 There are   229 symmetry adapted cartesian basis functions of A   symmetry.
 There are   215 symmetry adapted basis functions of A   symmetry.
   215 basis functions,   367 primitive gaussians,   229 cartesian basis functions
    25 alpha electrons       25 beta electrons
       nuclear repulsion energy       278.6068460226 Hartrees.
 NAtoms=   13 NActive=   13 NUniq=   13 SFac= 1.00D+00 NAtFMM=   60 NAOKFM=F Big=F
 Integral buffers will be    131072 words long.
 Raffenetti 1 integral format.
 Two-electron integral symmetry is turned on.
 One-electron integrals computed using PRISM.
 NBasis=   215 RedAO= T EigKep=  3.60D-06  NBF=   215
 NBsUse=   215 1.00D-06 EigRej= -1.00D+00 NBFU=   215
 ExpMin= 2.97D-02 ExpMax= 1.17D+04 ExpMxC= 4.01D+02 IAcc=3 IRadAn=         5 AccDes= 0.00D+00
 Harris functional with IExCor=  205 and IRadAn=       5 diagonalized for initial guess.
 HarFok:  IExCor=  205 AccDes= 0.00D+00 IRadAn=         5 IDoV= 1 UseB2=F ITyADJ=14
 ICtDFT=  3500011 ScaDFX=  1.000000  1.000000  1.000000  1.000000
 FoFCou: FMM=F IPFlag=           0 FMFlag=      100000 FMFlg1=           0
         NFxFlg=           0 DoJE=T BraDBF=F KetDBF=T FulRan=T
         wScrn=  0.000000 ICntrl=     500 IOpCl=  0 I1Cent=   200000004 NGrid=           0
         NMat0=    1 NMatS0=      1 NMatT0=    0 NMatD0=    1 NMtDS0=    0 NMtDT0=    0
 Petite list used in FoFCou.
 Requested convergence on RMS density matrix=1.00D-08 within 128 cycles.
 Requested convergence on MAX density matrix=1.00D-06.
 Requested convergence on             energy=1.00D-06.
 No special actions if energy rises.
 Initial convergence to 1.0D-05 achieved.  Increase integral accuracy.
 SCF Done:  E(RHF) =  -305.515293721     A.U. after   15 cycles
            NFock= 15  Conv=0.44D-08     -V/T= 2.0023
 ExpMin= 2.97D-02 ExpMax= 1.17D+04 ExpMxC= 4.01D+02 IAcc=3 IRadAn=         5 AccDes= 0.00D+00
 HarFok:  IExCor=  205 AccDes= 0.00D+00 IRadAn=         5 IDoV=-2 UseB2=F ITyADJ=14
 ICtDFT= 12500011 ScaDFX=  1.000000  1.000000  1.000000  1.000000
 Range of M.O.s used for correlation:     8   215
 NBasis=   215 NAE=    25 NBE=    25 NFC=     7 NFV=     0
 NROrb=    208 NOA=    18 NOB=    18 NVA=   190 NVB=   190

 **** Warning!!: The largest alpha MO coefficient is  0.96877904D+02

 Fully direct method using O(OVN) memory.
 JobTyp=1 Pass  1:  I=   1 to   4 NPSUse=  4 ParTrn=T ParDer=T DoDerP=F.
 JobTyp=1 Pass  2:  I=   5 to  10 NPSUse=  4 ParTrn=T ParDer=T DoDerP=F.
 JobTyp=1 Pass  3:  I=  11 to  18 NPSUse=  4 ParTrn=T ParDer=T DoDerP=F.
 Spin components of T(2) and E(2):
     alpha-alpha T2 =       0.4960956794D-01 E2=     -0.1336084274D+00
     alpha-beta  T2 =       0.2675009653D+00 E2=     -0.7516396270D+00
     beta-beta   T2 =       0.4960956794D-01 E2=     -0.1336084274D+00
 ANorm=    0.1169068048D+01
 E2 =    -0.1018856482D+01 EUMP2 =    -0.30653415020226D+03

 **********************************************************************

            Population analysis using the SCF density.

 **********************************************************************

 Orbital symmetries:
       Occupied  (A) (A) (A) (A) (A) (A) (A) (A) (A) (A) (A) (A)
                 (A) (A) (A) (A) (A) (A) (A) (A) (A) (A) (A) (A)
                 (A)
       Virtual   (A) (A) (A) (A) (A) (A) (A) (A) (A) (A) (A) (A)
                 (A) (A) (A) (A) (A) (A) (A) (A) (A) (A) (A) (A)
                 (A) (A) (A) (A) (A) (A) (A) (A) (A) (A) (A) (A)
                 (A) (A) (A) (A) (A) (A) (A) (A) (A) (A) (A) (A)
                 (A) (A) (A) (A) (A) (A) (A) (A) (A) (A) (A) (A)
                 (A) (A) (A) (A) (A) (A) (A) (A) (A) (A) (A) (A)
                 (A) (A) (A) (A) (A) (A) (A) (A) (A) (A) (A) (A)
                 (A) (A) (A) (A) (A) (A) (A) (A) (A) (A) (A) (A)
                 (A) (A) (A) (A) (A) (A) (A) (A) (A) (A) (A) (A)
                 (A) (A) (A) (A) (A) (A) (A) (A) (A) (A) (A) (A)
                 (A) (A) (A) (A) (A) (A) (A) (A) (A) (A) (A) (A)
                 (A) (A) (A) (A) (A) (A) (A) (A) (A) (A) (A) (A)
                 (A) (A) (A) (A) (A) (A) (A) (A) (A) (A) (A) (A)
                 (A) (A) (A) (A) (A) (A) (A) (A) (A) (A) (A) (A)
                 (A) (A) (A) (A) (A) (A) (A) (A) (A) (A) (A) (A)
                 (A) (A) (A) (A) (A) (A) (A) (A) (A) (A)
 The electronic state is 1-A.
 Alpha  occ. eigenvalues --  -20.58730 -11.30798 -11.30741 -11.25722 -11.25642
 Alpha  occ. eigenvalues --  -11.25397 -11.25393  -1.41850  -1.11635  -1.02802
 Alpha  occ. eigenvalues --   -0.95074  -0.85960  -0.81584  -0.72438  -0.68158
 Alpha  occ. eigenvalues --   -0.65109  -0.63164  -0.60184  -0.55729  -0.52936
 Alpha  occ. eigenvalues --   -0.51146  -0.49302  -0.44862  -0.38719  -0.32027
 Alpha virt. eigenvalues --    0.03421   0.04098   0.04104   0.05645   0.05653
 Alpha virt. eigenvalues --    0.06721   0.07599   0.11204   0.11908   0.13006
 Alpha virt. eigenvalues --    0.13638   0.14054   0.14261   0.14808   0.14969
 Alpha virt. eigenvalues --    0.15232   0.15482   0.16358   0.16440   0.17348
 Alpha virt. eigenvalues --    0.17867   0.18102   0.18791   0.18986   0.19075
 Alpha virt. eigenvalues --    0.21806   0.24748   0.25540   0.28943   0.29657
 Alpha virt. eigenvalues --    0.30443   0.31543   0.32871   0.32927   0.32992
 Alpha virt. eigenvalues --    0.34112   0.34193   0.35390   0.36303   0.37558
 Alpha virt. eigenvalues --    0.39053   0.39094   0.39259   0.40023   0.41138
 Alpha virt. eigenvalues --    0.41893   0.42204   0.42859   0.43456   0.45601
 Alpha virt. eigenvalues --    0.47863   0.48134   0.50033   0.51815   0.54085
 Alpha virt. eigenvalues --    0.54188   0.54229   0.56440   0.57694   0.57918
 Alpha virt. eigenvalues --    0.58523   0.60241   0.61607   0.62971   0.63177
 Alpha virt. eigenvalues --    0.64655   0.65780   0.66154   0.67037   0.67438
 Alpha virt. eigenvalues --    0.68937   0.70713   0.71373   0.71776   0.72134
 Alpha virt. eigenvalues --    0.75555   0.75975   0.77207   0.77412   0.77899
 Alpha virt. eigenvalues --    0.79783   0.82021   0.83861   0.84465   0.86811
 Alpha virt. eigenvalues --    0.87737   0.88383   0.89850   0.91020   0.92316
 Alpha virt. eigenvalues --    0.92741   0.93119   0.96634   0.96934   0.98574
 Alpha virt. eigenvalues --    0.98633   1.01145   1.06374   1.06925   1.08403
 Alpha virt. eigenvalues --    1.08510   1.13571   1.18130   1.18626   1.22028
 Alpha virt. eigenvalues --    1.25515   1.30572   1.32937   1.34066   1.37960
 Alpha virt. eigenvalues --    1.42125   1.42834   1.47658   1.48584   1.52845
 Alpha virt. eigenvalues --    1.54365   1.56936   1.57254   1.60034   1.61515
 Alpha virt. eigenvalues --    1.62131   1.62602   1.63895   1.66150   1.66314
 Alpha virt. eigenvalues --    1.67639   1.71150   1.71519   1.72666   1.74776
 Alpha virt. eigenvalues --    1.78610   1.78988   1.82252   1.84216   1.84872
 Alpha virt. eigenvalues --    1.87505   1.88058   1.89578   1.92330   1.93731
 Alpha virt. eigenvalues --    1.94747   1.95413   1.99151   2.01532   2.05968
 Alpha virt. eigenvalues --    2.07000   2.07323   2.10733   2.14023   2.14808
 Alpha virt. eigenvalues --    2.16996   2.20276   2.21747   2.24599   2.24991
 Alpha virt. eigenvalues --    2.28369   2.32283   2.32636   2.37127   2.37863
 Alpha virt. eigenvalues --    2.40371   2.42986   2.53176   2.57848   2.58766
 Alpha virt. eigenvalues --    2.61091   2.61479   2.70785   2.72951   2.74313
 Alpha virt. eigenvalues --    2.75992   2.84614   2.85720   2.92277   2.94815
 Alpha virt. eigenvalues --    3.04648   3.06861   3.10546   3.12344   3.20615
 Alpha virt. eigenvalues --    3.41152   3.53599   3.59616   3.80682   3.81819
 Alpha virt. eigenvalues --    3.84942   3.94907   4.01000   4.16791   5.03713
          Condensed to atoms (all electrons):
               1          2          3          4          5          6
     1  C    6.957869  -1.627727   1.365293  -1.629956   1.461412  -1.205075
     2  C   -1.627727   7.179656  -1.410028   1.503866  -1.653689   1.461428
     3  C    1.365293  -1.410028   7.551954  -1.839602   1.503892  -1.629973
     4  C   -1.629956   1.503866  -1.839602   7.551967  -1.410008   1.365275
     5  C    1.461412  -1.653689   1.503892  -1.410008   7.179671  -1.627747
     6  C   -1.205075   1.461428  -1.629973   1.365275  -1.627747   6.957858
     7  H   -0.218643   0.244568  -0.126270   0.084084  -0.144562   0.179303
     8  H    0.291417  -0.246318   0.083756  -0.118341   0.084657  -0.079058
     9  H   -0.079057   0.084661  -0.118352   0.083762  -0.246351   0.291441
    10  H    0.179286  -0.144567   0.084084  -0.126267   0.244569  -0.218620
    11  O   -0.008609  -0.021494   0.002651   0.002690  -0.021499  -0.008598
    12  H    0.075633  -0.059508   0.388789  -0.262944   0.165023  -0.150937
    13  H   -0.150934   0.165023  -0.262946   0.388784  -0.059512   0.075636
               7          8          9         10         11         12
     1  C   -0.218643   0.291417  -0.079057   0.179286  -0.008609   0.075633
     2  C    0.244568  -0.246318   0.084661  -0.144567  -0.021494  -0.059508
     3  C   -0.126270   0.083756  -0.118352   0.084084   0.002651   0.388789
     4  C    0.084084  -0.118341   0.083762  -0.126267   0.002690  -0.262944
     5  C   -0.144562   0.084657  -0.246351   0.244569  -0.021499   0.165023
     6  C    0.179303  -0.079058   0.291441  -0.218620  -0.008598  -0.150937
     7  H    1.511114  -0.056940  -0.010942  -0.071238   0.001122   0.005948
     8  H   -0.056940   1.497245   0.007174  -0.010942   0.002175  -0.006786
     9  H   -0.010942   0.007174   1.497258  -0.056939   0.002175  -0.063326
    10  H   -0.071238  -0.010942  -0.056939   1.511098   0.001122  -0.009239
    11  O    0.001122   0.002175   0.002175   0.001122   9.103607  -0.065429
    12  H    0.005948  -0.006786  -0.063326  -0.009239  -0.065429   1.296988
    13  H   -0.009239  -0.063327  -0.006786   0.005948  -0.065427  -0.029529
              13
     1  C   -0.150934
     2  C    0.165023
     3  C   -0.262946
     4  C    0.388784
     5  C   -0.059512
     6  C    0.075636
     7  H   -0.009239
     8  H   -0.063327
     9  H   -0.006786
    10  H    0.005948
    11  O   -0.065427
    12  H   -0.029529
    13  H    1.296987
 Mulliken charges:
               1
     1  C    0.589091
     2  C    0.524127
     3  C    0.406752
     4  C    0.406690
     5  C    0.524146
     6  C    0.589068
     7  H   -0.388304
     8  H   -0.384712
     9  H   -0.384718
    10  H   -0.388295
    11  O   -0.924485
    12  H   -0.284683
    13  H   -0.284677
 Sum of Mulliken charges =   0.00000
 Mulliken charges with hydrogens summed into heavy atoms:
               1
     1  C    0.200787
     2  C    0.139415
     3  C    0.122075
     4  C    0.122007
     5  C    0.139427
     6  C    0.200773
    11  O   -0.924485
 Electronic spatial extent (au):  <R**2>=            586.7242
 Charge=              0.0000 electrons
 Dipole moment (field-independent basis, Debye):
    X=              0.9343    Y=              0.0000    Z=             -1.9277  Tot=              2.1422
 Quadrupole moment (field-independent basis, Debye-Ang):
   XX=            -39.0422   YY=            -36.2126   ZZ=            -46.0955
   XY=             -0.0001   XZ=              4.6237   YZ=              0.0000
 Traceless Quadrupole moment (field-independent basis, Debye-Ang):
   XX=              1.4079   YY=              4.2375   ZZ=             -5.6454
   XY=             -0.0001   XZ=              4.6237   YZ=              0.0000
 Octapole moment (field-independent basis, Debye-Ang**2):
  XXX=              3.1322  YYY=              0.0000  ZZZ=              1.8142  XYY=             -3.4081
  XXY=              0.0000  XXZ=             -2.4048  XZZ=             -3.9508  YZZ=              0.0000
  YYZ=             -2.9899  XYZ=              0.0001
 Hexadecapole moment (field-independent basis, Debye-Ang**3):
 XXXX=           -362.3568 YYYY=           -295.8567 ZZZZ=            -93.8536 XXXY=             -0.0003
 XXXZ=             15.3423 YYYX=             -0.0002 YYYZ=              0.0002 ZZZX=             -0.3748
 ZZZY=              0.0000 XXYY=           -108.2168 XXZZ=            -84.9735 YYZZ=            -73.4111
 XXYZ=              0.0001 YYXZ=              1.9445 ZZXY=              0.0000
 N-N= 2.786068460226D+02 E-N=-1.271160598745D+03  KE= 3.048184119649D+02
 1\1\GINC-QC0019\SP\RMP2-FC\Aug-CC-pVDZ\C6H6O1\ELIOT\05-Oct-2018\0\\# m
 p2/aug-cc-pvdz\\benzox-bp86.log\\0,1\C,0,-1.44547,0.72542,0.13014\C,0,
 -0.3228,1.44093,-0.19331\C,0,0.98052,0.76955,-0.31394\C,0,0.98053,-0.7
 6954,-0.31395\C,0,-0.32279,-1.44093,-0.19331\C,0,-1.44546,-0.72543,0.1
 3014\H,0,-2.40578,1.24761,0.27222\H,0,-0.38084,2.52227,-0.39739\H,0,-0
 .38082,-2.52227,-0.39738\H,0,-2.40577,-1.24763,0.27223\O,0,1.42976,0.,
 0.80919\H,0,1.79399,-1.29761,-0.84891\H,0,1.79398,1.29762,-0.8489\\Ver
 sion=ES64L-G09RevE.01\State=1-A\HF=-305.5152937\MP2=-306.5341502\RMSD=
 4.434e-09\PG=C01 [X(C6H6O1)]\\@


 WHEN YOU REACH FOR THE STARS, YOU MAY NOT QUITE GET ONE,
 BUT YOU WON'T COME UP WITH A HANDFUL OF MUD, EITHER.

                                         -- LEO BURNETT (AD AGENCY HEAD)
 Job cpu time:       0 days  0 hours  4 minutes 34.5 seconds.
 File lengths (MBytes):  RWF=     27 Int=      0 D2E=      0 Chk=      4 Scr=      1
 Normal termination of Gaussian 09 at Fri Oct  5 17:30:09 2018.
