 Entering Gaussian System, Link 0=/home/eliot/software/g09E01/g09
 Initial command:
 /home/eliot/software/g09E01/l1.exe "/tmp/Gau-6604.inp" -scrdir="/tmp/"
 Entering Link 1 = /home/eliot/software/g09E01/l1.exe PID=      6606.
  
 Copyright (c) 1988,1990,1992,1993,1995,1998,2003,2009,2015,
            Gaussian, Inc.  All Rights Reserved.
  
 This is part of the Gaussian(R) 09 program.  It is based on
 the Gaussian(R) 03 system (copyright 2003, Gaussian, Inc.),
 the Gaussian(R) 98 system (copyright 1998, Gaussian, Inc.),
 the Gaussian(R) 94 system (copyright 1995, Gaussian, Inc.),
 the Gaussian 92(TM) system (copyright 1992, Gaussian, Inc.),
 the Gaussian 90(TM) system (copyright 1990, Gaussian, Inc.),
 the Gaussian 88(TM) system (copyright 1988, Gaussian, Inc.),
 the Gaussian 86(TM) system (copyright 1986, Carnegie Mellon
 University), and the Gaussian 82(TM) system (copyright 1983,
 Carnegie Mellon University). Gaussian is a federally registered
 trademark of Gaussian, Inc.
  
 This software contains proprietary and confidential information,
 including trade secrets, belonging to Gaussian, Inc.
  
 This software is provided under written license and may be
 used, copied, transmitted, or stored only in accord with that
 written license.
  
 The following legend is applicable only to US Government
 contracts under FAR:
  
                    RESTRICTED RIGHTS LEGEND
  
 Use, reproduction and disclosure by the US Government is
 subject to restrictions as set forth in subparagraphs (a)
 and (c) of the Commercial Computer Software - Restricted
 Rights clause in FAR 52.227-19.
  
 Gaussian, Inc.
 340 Quinnipiac St., Bldg. 40, Wallingford CT 06492
  
  
 ---------------------------------------------------------------
 Warning -- This program may not be used in any manner that
 competes with the business of Gaussian, Inc. or will provide
 assistance to any competitor of Gaussian, Inc.  The licensee
 of this program is prohibited from giving any competitor of
 Gaussian, Inc. access to this program.  By using this program,
 the user acknowledges that Gaussian, Inc. is engaged in the
 business of creating and licensing software in the field of
 computational chemistry and represents and warrants to the
 licensee that it is not a competitor of Gaussian, Inc. and that
 it will not use this program in any manner prohibited above.
 ---------------------------------------------------------------
  

 Cite this work as:
 Gaussian 09, Revision E.01,
 M. J. Frisch, G. W. Trucks, H. B. Schlegel, G. E. Scuseria, 
 M. A. Robb, J. R. Cheeseman, G. Scalmani, V. Barone, B. Mennucci, 
 G. A. Petersson, H. Nakatsuji, M. Caricato, X. Li, H. P. Hratchian, 
 A. F. Izmaylov, J. Bloino, G. Zheng, J. L. Sonnenberg, M. Hada, 
 M. Ehara, K. Toyota, R. Fukuda, J. Hasegawa, M. Ishida, T. Nakajima, 
 Y. Honda, O. Kitao, H. Nakai, T. Vreven, J. A. Montgomery, Jr., 
 J. E. Peralta, F. Ogliaro, M. Bearpark, J. J. Heyd, E. Brothers, 
 K. N. Kudin, V. N. Staroverov, T. Keith, R. Kobayashi, J. Normand, 
 K. Raghavachari, A. Rendell, J. C. Burant, S. S. Iyengar, J. Tomasi, 
 M. Cossi, N. Rega, J. M. Millam, M. Klene, J. E. Knox, J. B. Cross, 
 V. Bakken, C. Adamo, J. Jaramillo, R. Gomperts, R. E. Stratmann, 
 O. Yazyev, A. J. Austin, R. Cammi, C. Pomelli, J. W. Ochterski, 
 R. L. Martin, K. Morokuma, V. G. Zakrzewski, G. A. Voth, 
 P. Salvador, J. J. Dannenberg, S. Dapprich, A. D. Daniels, 
 O. Farkas, J. B. Foresman, J. V. Ortiz, J. Cioslowski, 
 and D. J. Fox, Gaussian, Inc., Wallingford CT, 2013.
 
 ******************************************
 Gaussian 09:  ES64L-G09RevE.01 30-Nov-2015
                 5-Oct-2018 
 ******************************************
 %nproc=2
 Will use up to    2 processors via shared memory.
 --------------
 # opt bp86/SVP
 --------------
 1/14=-1,18=20,19=15,26=3,38=1/1,3;
 2/9=110,12=2,17=6,18=5,40=1/2;
 3/5=18,7=101,11=2,16=1,25=1,30=1,71=1,74=404/1,2,3;
 4//1;
 5/5=2,38=5/2;
 6/7=2,8=2,9=2,10=2,28=1/1;
 7//1,2,3,16;
 1/14=-1,18=20,19=15,26=3/3(2);
 2/9=110/2;
 99//99;
 2/9=110/2;
 3/5=18,7=101,11=2,16=1,25=1,30=1,71=1,74=404/1,2,3;
 4/5=5,16=3,69=1/1;
 5/5=2,38=5/2;
 7//1,2,3,16;
 1/14=-1,18=20,19=15,26=3/3(-5);
 2/9=110/2;
 6/7=2,8=2,9=2,10=2,19=2,28=1/1;
 99/9=1/99;
 ----------
 benzox.log
 ----------
 Symbolic Z-matrix:
 Charge =  0 Multiplicity = 1
 C                     1.44025  -0.72567   0.12333 
 C                     0.32437  -1.43497  -0.18168 
 C                    -0.97577  -0.7605   -0.31547 
 C                    -0.97526   0.76079  -0.31544 
 C                     0.32503   1.43489  -0.18187 
 C                     1.44055   0.72517   0.12348 
 H                     2.39341  -1.24286   0.2646 
 H                     0.37532  -2.51256  -0.35892 
 H                     0.37613   2.51246  -0.35904 
 H                     2.39394   1.24188   0.26498 
 O                    -1.43286   0.0003    0.79666 
 H                    -1.77525   1.29079  -0.84944 
 H                    -1.77574  -1.29035  -0.84958 
 

 GradGradGradGradGradGradGradGradGradGradGradGradGradGradGradGradGradGrad
 Berny optimization.
 Initialization pass.
                           ----------------------------
                           !    Initial Parameters    !
                           ! (Angstroms and Degrees)  !
 --------------------------                            --------------------------
 ! Name  Definition              Value          Derivative Info.                !
 --------------------------------------------------------------------------------
 ! R1    R(1,2)                  1.357          estimate D2E/DX2                !
 ! R2    R(1,6)                  1.4508         estimate D2E/DX2                !
 ! R3    R(1,7)                  1.0936         estimate D2E/DX2                !
 ! R4    R(2,3)                  1.4708         estimate D2E/DX2                !
 ! R5    R(2,8)                  1.0933         estimate D2E/DX2                !
 ! R6    R(3,4)                  1.5213         estimate D2E/DX2                !
 ! R7    R(3,11)                 1.4229         estimate D2E/DX2                !
 ! R8    R(3,13)                 1.0982         estimate D2E/DX2                !
 ! R9    R(4,5)                  1.4707         estimate D2E/DX2                !
 ! R10   R(4,11)                 1.4229         estimate D2E/DX2                !
 ! R11   R(4,12)                 1.0982         estimate D2E/DX2                !
 ! R12   R(5,6)                  1.357          estimate D2E/DX2                !
 ! R13   R(5,9)                  1.0932         estimate D2E/DX2                !
 ! R14   R(6,10)                 1.0936         estimate D2E/DX2                !
 ! A1    A(2,1,6)              121.5275         estimate D2E/DX2                !
 ! A2    A(2,1,7)              119.9054         estimate D2E/DX2                !
 ! A3    A(6,1,7)              118.2118         estimate D2E/DX2                !
 ! A4    A(1,2,3)              120.5092         estimate D2E/DX2                !
 ! A5    A(1,2,8)              120.8866         estimate D2E/DX2                !
 ! A6    A(3,2,8)              118.5849         estimate D2E/DX2                !
 ! A7    A(2,3,4)              117.2764         estimate D2E/DX2                !
 ! A8    A(2,3,11)             117.2629         estimate D2E/DX2                !
 ! A9    A(2,3,13)             117.8352         estimate D2E/DX2                !
 ! A10   A(4,3,13)             118.8645         estimate D2E/DX2                !
 ! A11   A(11,3,13)            113.8357         estimate D2E/DX2                !
 ! A12   A(3,4,5)              117.2998         estimate D2E/DX2                !
 ! A13   A(3,4,12)             118.8393         estimate D2E/DX2                !
 ! A14   A(5,4,11)             117.2797         estimate D2E/DX2                !
 ! A15   A(5,4,12)             117.8398         estimate D2E/DX2                !
 ! A16   A(11,4,12)            113.8111         estimate D2E/DX2                !
 ! A17   A(4,5,6)              120.499          estimate D2E/DX2                !
 ! A18   A(4,5,9)              118.5802         estimate D2E/DX2                !
 ! A19   A(6,5,9)              120.9021         estimate D2E/DX2                !
 ! A20   A(1,6,5)              121.5223         estimate D2E/DX2                !
 ! A21   A(1,6,10)             118.2083         estimate D2E/DX2                !
 ! A22   A(5,6,10)             119.9122         estimate D2E/DX2                !
 ! D1    D(6,1,2,3)             -9.7082         estimate D2E/DX2                !
 ! D2    D(6,1,2,8)            168.668          estimate D2E/DX2                !
 ! D3    D(7,1,2,3)            177.2591         estimate D2E/DX2                !
 ! D4    D(7,1,2,8)             -4.3647         estimate D2E/DX2                !
 ! D5    D(2,1,6,5)             -0.0241         estimate D2E/DX2                !
 ! D6    D(2,1,6,10)          -173.1539         estimate D2E/DX2                !
 ! D7    D(7,1,6,5)            173.1227         estimate D2E/DX2                !
 ! D8    D(7,1,6,10)            -0.0071         estimate D2E/DX2                !
 ! D9    D(1,2,3,4)              9.3136         estimate D2E/DX2                !
 ! D10   D(1,2,3,11)           -56.4226         estimate D2E/DX2                !
 ! D11   D(1,2,3,13)           161.7453         estimate D2E/DX2                !
 ! D12   D(8,2,3,4)           -169.0995         estimate D2E/DX2                !
 ! D13   D(8,2,3,11)           125.1643         estimate D2E/DX2                !
 ! D14   D(8,2,3,13)           -16.6678         estimate D2E/DX2                !
 ! D15   D(2,3,4,5)              0.0094         estimate D2E/DX2                !
 ! D16   D(2,3,4,12)           152.1568         estimate D2E/DX2                !
 ! D17   D(13,3,4,5)          -152.1306         estimate D2E/DX2                !
 ! D18   D(13,3,4,12)            0.0168         estimate D2E/DX2                !
 ! D19   D(3,4,5,6)             -9.3395         estimate D2E/DX2                !
 ! D20   D(3,4,5,9)            169.1053         estimate D2E/DX2                !
 ! D21   D(11,4,5,6)            56.412          estimate D2E/DX2                !
 ! D22   D(11,4,5,9)          -125.1433         estimate D2E/DX2                !
 ! D23   D(12,4,5,6)          -161.77           estimate D2E/DX2                !
 ! D24   D(12,4,5,9)            16.6747         estimate D2E/DX2                !
 ! D25   D(4,5,6,1)              9.7468         estimate D2E/DX2                !
 ! D26   D(4,5,6,10)          -177.2385         estimate D2E/DX2                !
 ! D27   D(9,5,6,1)           -168.6615         estimate D2E/DX2                !
 ! D28   D(9,5,6,10)             4.3532         estimate D2E/DX2                !
 --------------------------------------------------------------------------------
 Trust Radius=3.00D-01 FncErr=1.00D-07 GrdErr=1.00D-06
 Number of steps in this run=     74 maximum allowed number of steps=    100.
 GradGradGradGradGradGradGradGradGradGradGradGradGradGradGradGradGradGrad

                          Input orientation:                          
 ---------------------------------------------------------------------
 Center     Atomic      Atomic             Coordinates (Angstroms)
 Number     Number       Type             X           Y           Z
 ---------------------------------------------------------------------
      1          6           0        1.440250   -0.725670    0.123330
      2          6           0        0.324370   -1.434970   -0.181680
      3          6           0       -0.975770   -0.760500   -0.315470
      4          6           0       -0.975260    0.760790   -0.315440
      5          6           0        0.325030    1.434890   -0.181870
      6          6           0        1.440550    0.725170    0.123480
      7          1           0        2.393410   -1.242860    0.264600
      8          1           0        0.375320   -2.512560   -0.358920
      9          1           0        0.376130    2.512460   -0.359040
     10          1           0        2.393940    1.241880    0.264980
     11          8           0       -1.432860    0.000300    0.796660
     12          1           0       -1.775250    1.290790   -0.849440
     13          1           0       -1.775740   -1.290350   -0.849580
 ---------------------------------------------------------------------
                    Distance matrix (angstroms):
                    1          2          3          4          5
     1  C    0.000000
     2  C    1.356955   0.000000
     3  C    2.455791   1.470773   0.000000
     4  C    2.869978   2.555052   1.521290   0.000000
     5  C    2.450486   2.869860   2.555321   1.470716   0.000000
     6  C    1.450840   2.450548   2.870278   2.455618   1.356955
     7  H    1.093598   2.125323   3.452612   3.962196   3.412899
     8  H    2.135326   1.093257   2.212927   3.541296   3.951739
     9  H    3.442458   3.951751   3.541440   2.212804   1.093233
    10  H    2.191082   3.412939   3.962498   3.452513   2.125398
    11  O    3.038942   2.470831   1.422878   1.422852   2.470981
    12  H    3.918141   3.504864   2.265410   1.098199   2.208527
    13  H    3.407053   2.208499   1.098165   2.265667   3.505140
                    6          7          8          9         10
     6  C    0.000000
     7  H    2.191118   0.000000
     8  H    3.442429   2.464468   0.000000
     9  H    2.135467   4.308222   5.025020   0.000000
    10  H    1.093601   2.484740   4.308120   2.464819   0.000000
    11  O    3.038930   4.058186   3.304443   3.304396   4.058153
    12  H    3.407032   5.003818   4.396707   2.522183   4.315839
    13  H    3.918378   4.315723   2.522222   4.396878   5.004065
                   11         12         13
    11  O    0.000000
    12  H    2.119491   0.000000
    13  H    2.119776   2.581140   0.000000
 Stoichiometry    C6H6O
 Framework group  C1[X(C6H6O)]
 Deg. of freedom    33
 Full point group                 C1      NOp   1
 Largest Abelian subgroup         C1      NOp   1
 Largest concise Abelian subgroup C1      NOp   1
                         Standard orientation:                         
 ---------------------------------------------------------------------
 Center     Atomic      Atomic             Coordinates (Angstroms)
 Number     Number       Type             X           Y           Z
 ---------------------------------------------------------------------
      1          6           0       -1.440258    0.725657    0.123330
      2          6           0       -0.324384    1.434967   -0.181680
      3          6           0        0.975762    0.760509   -0.315470
      4          6           0        0.975266   -0.760781   -0.315440
      5          6           0       -0.325018   -1.434893   -0.181870
      6          6           0       -1.440544   -0.725183    0.123480
      7          1           0       -2.393422    1.242839    0.264600
      8          1           0       -0.375344    2.512557   -0.358920
      9          1           0       -0.376108   -2.512463   -0.359040
     10          1           0       -2.393930   -1.241901    0.264980
     11          8           0        1.432859   -0.000287    0.796660
     12          1           0        1.775261   -1.290774   -0.849440
     13          1           0        1.775727    1.290366   -0.849580
 ---------------------------------------------------------------------
 Rotational constants (GHZ):      4.5735044      3.5674010      2.2825095
 Standard basis: SVP (5D, 7F)
 There are   135 symmetry adapted cartesian basis functions of A   symmetry.
 There are   128 symmetry adapted basis functions of A   symmetry.
   128 basis functions,   217 primitive gaussians,   135 cartesian basis functions
    25 alpha electrons       25 beta electrons
       nuclear repulsion energy       280.1111495346 Hartrees.
 NAtoms=   13 NActive=   13 NUniq=   13 SFac= 1.00D+00 NAtFMM=   60 NAOKFM=F Big=F
 Integral buffers will be    131072 words long.
 Raffenetti 2 integral format.
 Two-electron integral symmetry is turned on.
 One-electron integrals computed using PRISM.
 NBasis=   128 RedAO= T EigKep=  3.37D-04  NBF=   128
 NBsUse=   128 1.00D-06 EigRej= -1.00D+00 NBFU=   128
 ExpMin= 1.22D-01 ExpMax= 2.27D+03 ExpMxC= 3.41D+02 IAcc=1 IRadAn=         1 AccDes= 0.00D+00
 Harris functional with IExCor=  404 and IRadAn=       1 diagonalized for initial guess.
 HarFok:  IExCor=  404 AccDes= 0.00D+00 IRadAn=         1 IDoV= 1 UseB2=F ITyADJ=14
 ICtDFT=  3500011 ScaDFX=  1.000000  1.000000  1.000000  1.000000
 FoFCou: FMM=F IPFlag=           0 FMFlag=      100000 FMFlg1=           0
         NFxFlg=           0 DoJE=T BraDBF=F KetDBF=T FulRan=T
         wScrn=  0.000000 ICntrl=     500 IOpCl=  0 I1Cent=   200000004 NGrid=           0
         NMat0=    1 NMatS0=      1 NMatT0=    0 NMatD0=    1 NMtDS0=    0 NMtDT0=    0
 Petite list used in FoFCou.
 Requested convergence on RMS density matrix=1.00D-08 within 128 cycles.
 Requested convergence on MAX density matrix=1.00D-06.
 Requested convergence on             energy=1.00D-06.
 No special actions if energy rises.
 Integral accuracy reduced to 1.0D-05 until final iterations.
 Initial convergence to 1.0D-05 achieved.  Increase integral accuracy.
 SCF Done:  E(RB-P86) =  -307.174129725     A.U. after   14 cycles
            NFock= 14  Conv=0.89D-08     -V/T= 2.0105

 **********************************************************************

            Population analysis using the SCF density.

 **********************************************************************

 Orbital symmetries:
       Occupied  (A) (A) (A) (A) (A) (A) (A) (A) (A) (A) (A) (A)
                 (A) (A) (A) (A) (A) (A) (A) (A) (A) (A) (A) (A)
                 (A)
       Virtual   (A) (A) (A) (A) (A) (A) (A) (A) (A) (A) (A) (A)
                 (A) (A) (A) (A) (A) (A) (A) (A) (A) (A) (A) (A)
                 (A) (A) (A) (A) (A) (A) (A) (A) (A) (A) (A) (A)
                 (A) (A) (A) (A) (A) (A) (A) (A) (A) (A) (A) (A)
                 (A) (A) (A) (A) (A) (A) (A) (A) (A) (A) (A) (A)
                 (A) (A) (A) (A) (A) (A) (A) (A) (A) (A) (A) (A)
                 (A) (A) (A) (A) (A) (A) (A) (A) (A) (A) (A) (A)
                 (A) (A) (A) (A) (A) (A) (A) (A) (A) (A) (A) (A)
                 (A) (A) (A) (A) (A) (A) (A)
 The electronic state is 1-A.
 Alpha  occ. eigenvalues --  -18.79229  -9.97362  -9.97359  -9.92430  -9.92427
 Alpha  occ. eigenvalues --   -9.92184  -9.92181  -0.99167  -0.74806  -0.68325
 Alpha  occ. eigenvalues --   -0.62164  -0.56805  -0.53370  -0.48728  -0.44103
 Alpha  occ. eigenvalues --   -0.43057  -0.40877  -0.39147  -0.36426  -0.33232
 Alpha  occ. eigenvalues --   -0.32122  -0.31950  -0.25390  -0.22638  -0.21292
 Alpha virt. eigenvalues --   -0.07976   0.00043   0.03440   0.07439   0.07610
 Alpha virt. eigenvalues --    0.10139   0.10886   0.12644   0.13362   0.13570
 Alpha virt. eigenvalues --    0.21712   0.22237   0.22994   0.26967   0.33535
 Alpha virt. eigenvalues --    0.36273   0.37483   0.39996   0.40486   0.41168
 Alpha virt. eigenvalues --    0.43563   0.44176   0.46601   0.46886   0.48859
 Alpha virt. eigenvalues --    0.49543   0.50906   0.55336   0.57318   0.58600
 Alpha virt. eigenvalues --    0.59000   0.60819   0.61405   0.64446   0.65413
 Alpha virt. eigenvalues --    0.67121   0.67578   0.69034   0.72846   0.77104
 Alpha virt. eigenvalues --    0.81384   0.84337   0.88498   0.93609   1.00118
 Alpha virt. eigenvalues --    1.01299   1.08049   1.15101   1.19831   1.24572
 Alpha virt. eigenvalues --    1.24625   1.28939   1.29882   1.37444   1.45760
 Alpha virt. eigenvalues --    1.48042   1.52874   1.56479   1.63722   1.64472
 Alpha virt. eigenvalues --    1.64969   1.66022   1.66647   1.69109   1.70789
 Alpha virt. eigenvalues --    1.72343   1.73846   1.82732   1.85328   1.85512
 Alpha virt. eigenvalues --    1.87448   1.90690   1.90741   1.92915   1.97364
 Alpha virt. eigenvalues --    1.98912   2.01542   2.02614   2.10042   2.14203
 Alpha virt. eigenvalues --    2.18956   2.20694   2.24575   2.29219   2.36223
 Alpha virt. eigenvalues --    2.42678   2.44679   2.49458   2.61473   2.64705
 Alpha virt. eigenvalues --    2.65054   2.65582   2.73119   2.74087   2.76432
 Alpha virt. eigenvalues --    2.81932   2.91781   2.93286   3.05113   3.07597
 Alpha virt. eigenvalues --    3.23390   3.32806   3.44030
          Condensed to atoms (all electrons):
               1          2          3          4          5          6
     1  C    5.080951   0.355956   0.080408  -0.105320   0.048777   0.233036
     2  C    0.355956   5.085645   0.240786   0.045379  -0.081880   0.048740
     3  C    0.080408   0.240786   5.064855   0.048787   0.045437  -0.105342
     4  C   -0.105320   0.045379   0.048787   5.064721   0.240712   0.080476
     5  C    0.048777  -0.081880   0.045437   0.240712   5.086004   0.355626
     6  C    0.233036   0.048740  -0.105342   0.080476   0.355626   5.081191
     7  H    0.430286  -0.068259   0.013823  -0.001389   0.015682  -0.070097
     8  H   -0.066494   0.437185  -0.075095   0.010047  -0.001644   0.014339
     9  H    0.014329  -0.001642   0.010044  -0.075056   0.437209  -0.066512
    10  H   -0.070062   0.015678  -0.001386   0.013817  -0.068260   0.430258
    11  O   -0.000306  -0.046265   0.220564   0.220744  -0.046383  -0.000202
    12  H    0.001112  -0.000123  -0.013875   0.384706  -0.054373   0.011420
    13  H    0.011408  -0.054346   0.384704  -0.013875  -0.000131   0.001115
               7          8          9         10         11         12
     1  C    0.430286  -0.066494   0.014329  -0.070062  -0.000306   0.001112
     2  C   -0.068259   0.437185  -0.001642   0.015678  -0.046265  -0.000123
     3  C    0.013823  -0.075095   0.010044  -0.001386   0.220564  -0.013875
     4  C   -0.001389   0.010047  -0.075056   0.013817   0.220744   0.384706
     5  C    0.015682  -0.001644   0.437209  -0.068260  -0.046383  -0.054373
     6  C   -0.070097   0.014339  -0.066512   0.430258  -0.000202   0.011420
     7  H    0.702613  -0.015303  -0.000306  -0.012596  -0.000285   0.000010
     8  H   -0.015303   0.698045   0.000038  -0.000306   0.002190  -0.000062
     9  H   -0.000306   0.000038   0.697987  -0.015289   0.002186  -0.007422
    10  H   -0.012596  -0.000306  -0.015289   0.702596  -0.000284  -0.000392
    11  O   -0.000285   0.002190   0.002186  -0.000284   7.974478  -0.030333
    12  H    0.000010  -0.000062  -0.007422  -0.000392  -0.030333   0.686054
    13  H   -0.000392  -0.007420  -0.000062   0.000010  -0.030308  -0.003522
              13
     1  C    0.011408
     2  C   -0.054346
     3  C    0.384704
     4  C   -0.013875
     5  C   -0.000131
     6  C    0.001115
     7  H   -0.000392
     8  H   -0.007420
     9  H   -0.000062
    10  H    0.000010
    11  O   -0.030308
    12  H   -0.003522
    13  H    0.686013
 Mulliken charges:
               1
     1  C   -0.014082
     2  C    0.023148
     3  C    0.086290
     4  C    0.086251
     5  C    0.023224
     6  C   -0.014048
     7  H    0.006212
     8  H    0.004481
     9  H    0.004497
    10  H    0.006218
    11  O   -0.265795
    12  H    0.026801
    13  H    0.026804
 Sum of Mulliken charges =   0.00000
 Mulliken charges with hydrogens summed into heavy atoms:
               1
     1  C   -0.007870
     2  C    0.027628
     3  C    0.113094
     4  C    0.113051
     5  C    0.027721
     6  C   -0.007830
    11  O   -0.265795
 Electronic spatial extent (au):  <R**2>=            580.3301
 Charge=              0.0000 electrons
 Dipole moment (field-independent basis, Debye):
    X=             -0.7189    Y=              0.0002    Z=             -1.5505  Tot=              1.7090
 Quadrupole moment (field-independent basis, Debye-Ang):
   XX=            -38.7224   YY=            -36.2247   ZZ=            -43.9535
   XY=              0.0011   XZ=             -3.4578   YZ=              0.0000
 Traceless Quadrupole moment (field-independent basis, Debye-Ang):
   XX=              0.9111   YY=              3.4088   ZZ=             -4.3200
   XY=              0.0011   XZ=             -3.4578   YZ=              0.0000
 Octapole moment (field-independent basis, Debye-Ang**2):
  XXX=             -0.8452  YYY=             -0.0028  ZZZ=              2.4629  XYY=              2.4291
  XXY=              0.0030  XXZ=             -1.7914  XZZ=              3.2073  YZZ=             -0.0005
  YYZ=             -1.5075  XYZ=              0.0001
 Hexadecapole moment (field-independent basis, Debye-Ang**3):
 XXXX=           -358.7056 YYYY=           -292.7197 ZZZZ=            -82.5680 XXXY=              0.0023
 XXXZ=             -8.6119 YYYX=             -0.0015 YYYZ=             -0.0005 ZZZX=              2.6443
 ZZZY=             -0.0022 XXYY=           -107.0228 XXZZ=            -80.0684 YYZZ=            -68.6640
 XXYZ=             -0.0023 YYXZ=             -0.7640 ZZXY=              0.0013
 N-N= 2.801111495346D+02 E-N=-1.273951786420D+03  KE= 3.039723991169D+02
 Calling FoFJK, ICntrl=      2527 FMM=F ISym2X=0 I1Cent= 0 IOpClX= 0 NMat=1 NMatS=1 NMatT=0.
 ***** Axes restored to original set *****
 -------------------------------------------------------------------
 Center     Atomic                   Forces (Hartrees/Bohr)
 Number     Number              X              Y              Z
 -------------------------------------------------------------------
      1        6           0.004795052    0.006299926    0.002171648
      2        6          -0.007023365   -0.001788870   -0.001930430
      3        6           0.003468438   -0.005242753   -0.001639353
      4        6           0.003326635    0.005259764   -0.001712562
      5        6          -0.007021849    0.001756799   -0.001878173
      6        6           0.004818007   -0.006301440    0.002131016
      7        1           0.005104797   -0.002694512    0.000914399
      8        1           0.000173284   -0.005727193   -0.001277106
      9        1           0.000189810    0.005738540   -0.001278457
     10        1           0.005102127    0.002698669    0.000907451
     11        8          -0.003902497   -0.000014945    0.010397152
     12        1          -0.004497112    0.002834142   -0.003405078
     13        1          -0.004533327   -0.002818129   -0.003400507
 -------------------------------------------------------------------
 Cartesian Forces:  Max     0.010397152 RMS     0.004149444

 GradGradGradGradGradGradGradGradGradGradGradGradGradGradGradGradGradGrad
 Berny optimization.
 FormGI is forming the generalized inverse of G from B-inverse, IUseBI=4.
 Internal  Forces:  Max     0.011916891 RMS     0.003206649
 Search for a local minimum.
 Step number   1 out of a maximum of   74
 All quantities printed in internal units (Hartrees-Bohrs-Radians)
 Mixed Optimization -- RFO/linear search
 Second derivative matrix not updated -- first step.
 ITU=  0
     Eigenvalues ---    0.01541   0.01542   0.01798   0.01898   0.02019
     Eigenvalues ---    0.02292   0.02293   0.02789   0.02902   0.14020
     Eigenvalues ---    0.14761   0.15859   0.15918   0.15993   0.15994
     Eigenvalues ---    0.17949   0.18020   0.21783   0.21898   0.26479
     Eigenvalues ---    0.30700   0.33882   0.33886   0.34353   0.34400
     Eigenvalues ---    0.34400   0.34439   0.34442   0.35173   0.37343
     Eigenvalues ---    0.40128   0.51110   0.52653
 RFO step:  Lambda=-1.61628570D-03 EMin= 1.54051928D-02
 Linear search not attempted -- first point.
 Iteration  1 RMS(Cart)=  0.01202511 RMS(Int)=  0.00004481
 Iteration  2 RMS(Cart)=  0.00005040 RMS(Int)=  0.00000987
 Iteration  3 RMS(Cart)=  0.00000000 RMS(Int)=  0.00000987
 Variable       Old X    -DE/DX   Delta X   Delta X   Delta X     New X
                                 (Linear)    (Quad)   (Total)
    R1        2.56427   0.01191   0.00000   0.02243   0.02243   2.58670
    R2        2.74169   0.00229   0.00000   0.00667   0.00667   2.74836
    R3        2.06660   0.00584   0.00000   0.01690   0.01690   2.08350
    R4        2.77936   0.00343   0.00000   0.00924   0.00924   2.78860
    R5        2.06596   0.00586   0.00000   0.01694   0.01694   2.08289
    R6        2.87482   0.00615   0.00000   0.01854   0.01853   2.89336
    R7        2.68885   0.00658   0.00000   0.01589   0.01589   2.70474
    R8        2.07523   0.00631   0.00000   0.01855   0.01855   2.09378
    R9        2.77925   0.00345   0.00000   0.00930   0.00930   2.78855
   R10        2.68880   0.00659   0.00000   0.01595   0.01595   2.70476
   R11        2.07529   0.00630   0.00000   0.01850   0.01850   2.09379
   R12        2.56427   0.01192   0.00000   0.02244   0.02244   2.58672
   R13        2.06591   0.00587   0.00000   0.01697   0.01697   2.08288
   R14        2.06661   0.00584   0.00000   0.01690   0.01690   2.08351
    A1        2.12106  -0.00064   0.00000  -0.00138  -0.00140   2.11965
    A2        2.09274   0.00041   0.00000   0.00105   0.00105   2.09380
    A3        2.06318   0.00021   0.00000  -0.00022  -0.00022   2.06297
    A4        2.10328   0.00003   0.00000   0.00003   0.00001   2.10329
    A5        2.10987   0.00015   0.00000   0.00103   0.00104   2.11091
    A6        2.06970  -0.00018   0.00000  -0.00096  -0.00095   2.06875
    A7        2.04686   0.00057   0.00000  -0.00046  -0.00048   2.04638
    A8        2.04662  -0.00021   0.00000   0.00122   0.00122   2.04784
    A9        2.05661  -0.00005   0.00000   0.00064   0.00062   2.05723
   A10        2.07458  -0.00063   0.00000  -0.00457  -0.00457   2.07001
   A11        1.98681   0.00024   0.00000   0.00420   0.00419   1.99100
   A12        2.04727   0.00052   0.00000  -0.00069  -0.00072   2.04655
   A13        2.07414  -0.00059   0.00000  -0.00436  -0.00436   2.06978
   A14        2.04692  -0.00023   0.00000   0.00108   0.00108   2.04799
   A15        2.05669  -0.00005   0.00000   0.00061   0.00059   2.05728
   A16        1.98638   0.00027   0.00000   0.00447   0.00446   1.99083
   A17        2.10310   0.00005   0.00000   0.00014   0.00012   2.10323
   A18        2.06962  -0.00017   0.00000  -0.00092  -0.00091   2.06870
   A19        2.11014   0.00012   0.00000   0.00087   0.00088   2.11102
   A20        2.12096  -0.00063   0.00000  -0.00133  -0.00136   2.11961
   A21        2.06312   0.00021   0.00000  -0.00017  -0.00017   2.06296
   A22        2.09286   0.00040   0.00000   0.00099   0.00099   2.09386
    D1       -0.16944  -0.00031   0.00000  -0.01340  -0.01340  -0.18284
    D2        2.94381  -0.00023   0.00000  -0.00903  -0.00902   2.93479
    D3        3.09376  -0.00020   0.00000  -0.00797  -0.00797   3.08579
    D4       -0.07618  -0.00012   0.00000  -0.00360  -0.00360  -0.07978
    D5       -0.00042   0.00001   0.00000   0.00042   0.00042   0.00000
    D6       -3.02211   0.00010   0.00000   0.00532   0.00531  -3.01679
    D7        3.02156  -0.00009   0.00000  -0.00483  -0.00482   3.01674
    D8       -0.00012   0.00000   0.00000   0.00006   0.00006  -0.00006
    D9        0.16255   0.00041   0.00000   0.01277   0.01278   0.17533
   D10       -0.98476   0.00006   0.00000   0.01289   0.01290  -0.97186
   D11        2.82299  -0.00001   0.00000   0.00216   0.00215   2.82514
   D12       -2.95134   0.00033   0.00000   0.00847   0.00848  -2.94287
   D13        2.18453  -0.00003   0.00000   0.00859   0.00860   2.19313
   D14       -0.29091  -0.00010   0.00000  -0.00214  -0.00215  -0.29305
   D15        0.00016  -0.00001   0.00000  -0.00007  -0.00007   0.00010
   D16        2.65564  -0.00026   0.00000  -0.00944  -0.00943   2.64621
   D17       -2.65518   0.00025   0.00000   0.00917   0.00915  -2.64602
   D18        0.00029  -0.00001   0.00000  -0.00021  -0.00021   0.00009
   D19       -0.16300  -0.00040   0.00000  -0.01247  -0.01247  -0.17547
   D20        2.95144  -0.00032   0.00000  -0.00858  -0.00859   2.94286
   D21        0.98458  -0.00007   0.00000  -0.01275  -0.01276   0.97182
   D22       -2.18416   0.00001   0.00000  -0.00887  -0.00888  -2.19304
   D23       -2.82342   0.00001   0.00000  -0.00178  -0.00178  -2.82519
   D24        0.29103   0.00009   0.00000   0.00210   0.00211   0.29314
   D25        0.17011   0.00030   0.00000   0.01276   0.01276   0.18287
   D26       -3.09340   0.00020   0.00000   0.00771   0.00770  -3.08569
   D27       -2.94370   0.00022   0.00000   0.00882   0.00881  -2.93489
   D28        0.07598   0.00012   0.00000   0.00376   0.00376   0.07973
         Item               Value     Threshold  Converged?
 Maximum Force            0.011917     0.000450     NO 
 RMS     Force            0.003207     0.000300     NO 
 Maximum Displacement     0.029516     0.001800     NO 
 RMS     Displacement     0.012023     0.001200     NO 
 Predicted change in Energy=-8.128498D-04
 GradGradGradGradGradGradGradGradGradGradGradGradGradGradGradGradGradGrad

                          Input orientation:                          
 ---------------------------------------------------------------------
 Center     Atomic      Atomic             Coordinates (Angstroms)
 Number     Number       Type             X           Y           Z
 ---------------------------------------------------------------------
      1          6           0        1.448139   -0.727452    0.129170
      2          6           0        0.323550   -1.441348   -0.186002
      3          6           0       -0.982125   -0.765386   -0.311969
      4          6           0       -0.981750    0.765712   -0.311917
      5          6           0        0.324134    1.441238   -0.186045
      6          6           0        1.448452    0.726915    0.129152
      7          1           0        2.409024   -1.248652    0.272875
      8          1           0        0.374873   -2.526354   -0.373125
      9          1           0        0.375736    2.526230   -0.373136
     10          1           0        2.409559    1.247696    0.272902
     11          8           0       -1.436620    0.000230    0.808680
     12          1           0       -1.789185    1.296135   -0.854445
     13          1           0       -1.789668   -1.295595   -0.854530
 ---------------------------------------------------------------------
                    Distance matrix (angstroms):
                    1          2          3          4          5
     1  C    0.000000
     2  C    1.368825   0.000000
     3  C    2.470269   1.475663   0.000000
     4  C    2.885906   2.567250   1.531098   0.000000
     5  C    2.462918   2.882586   2.567364   1.475639   0.000000
     6  C    1.454367   2.462944   2.886045   2.470208   1.368831
     7  H    1.102543   2.144039   3.474980   3.987103   3.434077
     8  H    2.154124   1.102219   2.224004   3.561161   3.972324
     9  H    3.462486   3.972332   3.561217   2.223947   1.102213
    10  H    2.201408   3.434091   3.987242   3.474953   2.144083
    11  O    3.051736   2.483091   1.431288   1.431295   2.483191
    12  H    3.942420   3.521971   2.279362   1.107988   2.221246
    13  H    3.431304   2.221230   1.107980   2.279505   3.522113
                    6          7          8          9         10
     6  C    0.000000
     7  H    2.201413   0.000000
     8  H    3.462458   2.487491   0.000000
     9  H    2.154193   4.336049   5.052584   0.000000
    10  H    1.102544   2.496348   4.335984   2.487660   0.000000
    11  O    3.051799   4.078698   3.325928   3.325959   4.078766
    12  H    3.431293   5.037038   4.418850   2.536076   4.347725
    13  H    3.942537   4.347673   2.536090   4.418943   5.037156
                   11         12         13
    11  O    0.000000
    12  H    2.137675   0.000000
    13  H    2.137773   2.591729   0.000000
 Stoichiometry    C6H6O
 Framework group  C1[X(C6H6O)]
 Deg. of freedom    33
 Full point group                 C1      NOp   1
 Largest Abelian subgroup         C1      NOp   1
 Largest concise Abelian subgroup C1      NOp   1
                         Standard orientation:                         
 ---------------------------------------------------------------------
 Center     Atomic      Atomic             Coordinates (Angstroms)
 Number     Number       Type             X           Y           Z
 ---------------------------------------------------------------------
      1          6           0       -1.448598    0.727331    0.126484
      2          6           0       -0.324062    1.441311   -0.188688
      3          6           0        0.981664    0.765447   -0.314655
      4          6           0        0.981402   -0.765651   -0.314603
      5          6           0       -0.324431   -1.441275   -0.188731
      6          6           0       -1.448802   -0.727036    0.126466
      7          1           0       -2.409522    1.248459    0.270188
      8          1           0       -0.375465    2.526314   -0.375811
      9          1           0       -0.375952   -2.526271   -0.375822
     10          1           0       -2.409871   -1.247888    0.270215
     11          8           0        1.436216   -0.000135    0.805994
     12          1           0        1.788878   -1.296014   -0.857132
     13          1           0        1.789167    1.295716   -0.857217
 ---------------------------------------------------------------------
 Rotational constants (GHZ):      4.5229511      3.5270757      2.2606730
 Standard basis: SVP (5D, 7F)
 There are   135 symmetry adapted cartesian basis functions of A   symmetry.
 There are   128 symmetry adapted basis functions of A   symmetry.
   128 basis functions,   217 primitive gaussians,   135 cartesian basis functions
    25 alpha electrons       25 beta electrons
       nuclear repulsion energy       278.5166778768 Hartrees.
 NAtoms=   13 NActive=   13 NUniq=   13 SFac= 1.00D+00 NAtFMM=   60 NAOKFM=F Big=F
 Integral buffers will be    131072 words long.
 Raffenetti 2 integral format.
 Two-electron integral symmetry is turned on.
 One-electron integrals computed using PRISM.
 NBasis=   128 RedAO= T EigKep=  3.58D-04  NBF=   128
 NBsUse=   128 1.00D-06 EigRej= -1.00D+00 NBFU=   128
 Initial guess from the checkpoint file:  "/tmp/Gau-6606.chk"
 B after Tr=     0.000000    0.000000    0.000000
         Rot=    1.000000    0.000007    0.000593   -0.000038 Ang=   0.07 deg.
 ExpMin= 1.22D-01 ExpMax= 2.27D+03 ExpMxC= 3.41D+02 IAcc=1 IRadAn=         1 AccDes= 0.00D+00
 Harris functional with IExCor=  404 and IRadAn=       1 diagonalized for initial guess.
 HarFok:  IExCor=  404 AccDes= 0.00D+00 IRadAn=         1 IDoV= 1 UseB2=F ITyADJ=14
 ICtDFT=  3500011 ScaDFX=  1.000000  1.000000  1.000000  1.000000
 FoFCou: FMM=F IPFlag=           0 FMFlag=      100000 FMFlg1=           0
         NFxFlg=           0 DoJE=T BraDBF=F KetDBF=T FulRan=T
         wScrn=  0.000000 ICntrl=     500 IOpCl=  0 I1Cent=   200000004 NGrid=           0
         NMat0=    1 NMatS0=      1 NMatT0=    0 NMatD0=    1 NMtDS0=    0 NMtDT0=    0
 Petite list used in FoFCou.
 Requested convergence on RMS density matrix=1.00D-08 within 128 cycles.
 Requested convergence on MAX density matrix=1.00D-06.
 Requested convergence on             energy=1.00D-06.
 No special actions if energy rises.
 Integral accuracy reduced to 1.0D-05 until final iterations.
 Initial convergence to 1.0D-05 achieved.  Increase integral accuracy.
 SCF Done:  E(RB-P86) =  -307.174949485     A.U. after   13 cycles
            NFock= 13  Conv=0.76D-08     -V/T= 2.0112
 Calling FoFJK, ICntrl=      2527 FMM=F ISym2X=0 I1Cent= 0 IOpClX= 0 NMat=1 NMatS=1 NMatT=0.
 ***** Axes restored to original set *****
 -------------------------------------------------------------------
 Center     Atomic                   Forces (Hartrees/Bohr)
 Number     Number              X              Y              Z
 -------------------------------------------------------------------
      1        6           0.000086478    0.001653464    0.000119445
      2        6          -0.001396150    0.000261279    0.000098555
      3        6           0.002032540   -0.003169597   -0.001307759
      4        6           0.001972293    0.003164844   -0.001333530
      5        6          -0.001390710   -0.000274910    0.000114553
      6        6           0.000081247   -0.001650870    0.000121159
      7        1          -0.000226698   -0.000067441   -0.000022726
      8        1           0.000126108    0.000201091   -0.000230372
      9        1           0.000133225   -0.000199543   -0.000232409
     10        1          -0.000228707    0.000069747   -0.000026017
     11        8          -0.000935048    0.000001311    0.002065649
     12        1          -0.000121417   -0.000110560    0.000317104
     13        1          -0.000133163    0.000121186    0.000316346
 -------------------------------------------------------------------
 Cartesian Forces:  Max     0.003169597 RMS     0.001096160

 GradGradGradGradGradGradGradGradGradGradGradGradGradGradGradGradGradGrad
 Berny optimization.
 Using GEDIIS/GDIIS optimizer.
 FormGI is forming the generalized inverse of G from B-inverse, IUseBI=4.
 Internal  Forces:  Max     0.001576483 RMS     0.000466311
 Search for a local minimum.
 Step number   2 out of a maximum of   74
 All quantities printed in internal units (Hartrees-Bohrs-Radians)
 Mixed Optimization -- En-DIIS/RFO-DIIS
 Update second derivatives using D2CorX and points    1    2
 DE= -8.20D-04 DEPred=-8.13D-04 R= 1.01D+00
 TightC=F SS=  1.41D+00  RLast= 7.64D-02 DXNew= 5.0454D-01 2.2918D-01
 Trust test= 1.01D+00 RLast= 7.64D-02 DXMaxT set to 3.00D-01
 ITU=  1  0
 Use linear search instead of GDIIS.
     Eigenvalues ---    0.01524   0.01542   0.01805   0.01901   0.02021
     Eigenvalues ---    0.02293   0.02297   0.02791   0.02937   0.13954
     Eigenvalues ---    0.14693   0.15847   0.15915   0.15996   0.16002
     Eigenvalues ---    0.17961   0.18040   0.21775   0.21882   0.25851
     Eigenvalues ---    0.30778   0.32883   0.33884   0.34117   0.34363
     Eigenvalues ---    0.34400   0.34420   0.34440   0.36021   0.38191
     Eigenvalues ---    0.39805   0.51111   0.53792
 RFO step:  Lambda=-5.27463571D-05 EMin= 1.52420534D-02
 Quartic linear search produced a step of  0.01525.
 Iteration  1 RMS(Cart)=  0.00325070 RMS(Int)=  0.00000750
 Iteration  2 RMS(Cart)=  0.00000807 RMS(Int)=  0.00000143
 Iteration  3 RMS(Cart)=  0.00000000 RMS(Int)=  0.00000143
 Variable       Old X    -DE/DX   Delta X   Delta X   Delta X     New X
                                 (Linear)    (Quad)   (Total)
    R1        2.58670   0.00002   0.00034   0.00044   0.00078   2.58749
    R2        2.74836  -0.00136   0.00010  -0.00345  -0.00335   2.74500
    R3        2.08350  -0.00017   0.00026  -0.00021   0.00005   2.08355
    R4        2.78860  -0.00157   0.00014  -0.00434  -0.00419   2.78440
    R5        2.08289  -0.00015   0.00026  -0.00016   0.00009   2.08299
    R6        2.89336   0.00158   0.00028   0.00586   0.00614   2.89949
    R7        2.70474   0.00138   0.00024   0.00347   0.00372   2.70846
    R8        2.09378  -0.00012   0.00028  -0.00004   0.00025   2.09402
    R9        2.78855  -0.00156   0.00014  -0.00431  -0.00417   2.78438
   R10        2.70476   0.00137   0.00024   0.00347   0.00371   2.70847
   R11        2.09379  -0.00012   0.00028  -0.00005   0.00023   2.09403
   R12        2.58672   0.00002   0.00034   0.00043   0.00077   2.58749
   R13        2.08288  -0.00015   0.00026  -0.00016   0.00010   2.08298
   R14        2.08351  -0.00017   0.00026  -0.00022   0.00004   2.08355
    A1        2.11965   0.00024  -0.00002   0.00080   0.00077   2.12043
    A2        2.09380  -0.00029   0.00002  -0.00163  -0.00162   2.09218
    A3        2.06297   0.00005   0.00000   0.00049   0.00049   2.06346
    A4        2.10329  -0.00016   0.00000  -0.00104  -0.00104   2.10225
    A5        2.11091  -0.00001   0.00002  -0.00006  -0.00004   2.11086
    A6        2.06875   0.00017  -0.00001   0.00104   0.00102   2.06977
    A7        2.04638  -0.00007  -0.00001  -0.00022  -0.00023   2.04615
    A8        2.04784   0.00001   0.00002  -0.00087  -0.00085   2.04699
    A9        2.05723   0.00019   0.00001   0.00160   0.00160   2.05884
   A10        2.07001  -0.00006  -0.00007   0.00071   0.00064   2.07064
   A11        1.99100  -0.00018   0.00006  -0.00249  -0.00243   1.98857
   A12        2.04655  -0.00010  -0.00001  -0.00032  -0.00033   2.04622
   A13        2.06978  -0.00004  -0.00007   0.00085   0.00078   2.07055
   A14        2.04799   0.00000   0.00002  -0.00096  -0.00094   2.04705
   A15        2.05728   0.00019   0.00001   0.00158   0.00158   2.05886
   A16        1.99083  -0.00017   0.00007  -0.00241  -0.00234   1.98850
   A17        2.10323  -0.00016   0.00000  -0.00100  -0.00100   2.10223
   A18        2.06870   0.00017  -0.00001   0.00106   0.00104   2.06975
   A19        2.11102  -0.00002   0.00001  -0.00013  -0.00011   2.11091
   A20        2.11961   0.00024  -0.00002   0.00082   0.00080   2.12041
   A21        2.06296   0.00005   0.00000   0.00050   0.00050   2.06345
   A22        2.09386  -0.00029   0.00002  -0.00167  -0.00166   2.09220
    D1       -0.18284  -0.00005  -0.00020  -0.00319  -0.00339  -0.18623
    D2        2.93479  -0.00010  -0.00014  -0.00632  -0.00645   2.92834
    D3        3.08579  -0.00002  -0.00012  -0.00003  -0.00015   3.08564
    D4       -0.07978  -0.00007  -0.00005  -0.00316  -0.00321  -0.08299
    D5        0.00000   0.00000   0.00001   0.00000   0.00000   0.00001
    D6       -3.01679   0.00005   0.00008   0.00333   0.00341  -3.01338
    D7        3.01674  -0.00005  -0.00007  -0.00326  -0.00334   3.01340
    D8       -0.00006   0.00000   0.00000   0.00007   0.00007   0.00001
    D9        0.17533   0.00001   0.00019   0.00298   0.00317   0.17850
   D10       -0.97186   0.00006   0.00020   0.00389   0.00409  -0.96778
   D11        2.82514   0.00011   0.00003   0.00752   0.00755   2.83269
   D12       -2.94287   0.00007   0.00013   0.00605   0.00618  -2.93669
   D13        2.19313   0.00012   0.00013   0.00696   0.00709   2.20022
   D14       -0.29305   0.00016  -0.00003   0.01059   0.01056  -0.28250
   D15        0.00010   0.00000   0.00000  -0.00007  -0.00007   0.00003
   D16        2.64621   0.00016  -0.00014   0.00480   0.00465   2.65086
   D17       -2.64602  -0.00017   0.00014  -0.00489  -0.00476  -2.65078
   D18        0.00009   0.00000   0.00000  -0.00003  -0.00003   0.00005
   D19       -0.17547  -0.00001  -0.00019  -0.00288  -0.00307  -0.17854
   D20        2.94286  -0.00006  -0.00013  -0.00606  -0.00619   2.93666
   D21        0.97182  -0.00007  -0.00019  -0.00385  -0.00405   0.96777
   D22       -2.19304  -0.00012  -0.00014  -0.00704  -0.00717  -2.20021
   D23       -2.82519  -0.00011  -0.00003  -0.00750  -0.00753  -2.83272
   D24        0.29314  -0.00016   0.00003  -0.01069  -0.01065   0.28248
   D25        0.18287   0.00005   0.00019   0.00316   0.00336   0.18623
   D26       -3.08569   0.00002   0.00012  -0.00007   0.00005  -3.08564
   D27       -2.93489   0.00010   0.00013   0.00641   0.00654  -2.92835
   D28        0.07973   0.00007   0.00006   0.00317   0.00323   0.08297
         Item               Value     Threshold  Converged?
 Maximum Force            0.001576     0.000450     NO 
 RMS     Force            0.000466     0.000300     NO 
 Maximum Displacement     0.012604     0.001800     NO 
 RMS     Displacement     0.003251     0.001200     NO 
 Predicted change in Energy=-2.657758D-05
 GradGradGradGradGradGradGradGradGradGradGradGradGradGradGradGradGradGrad

                          Input orientation:                          
 ---------------------------------------------------------------------
 Center     Atomic      Atomic             Coordinates (Angstroms)
 Number     Number       Type             X           Y           Z
 ---------------------------------------------------------------------
      1          6           0        1.446584   -0.726573    0.131584
      2          6           0        0.323212   -1.441606   -0.187132
      3          6           0       -0.980702   -0.767011   -0.312688
      4          6           0       -0.980382    0.767335   -0.312664
      5          6           0        0.323760    1.441469   -0.187132
      6          6           0        1.446868    0.726020    0.131583
      7          1           0        2.407269   -1.248243    0.275109
      8          1           0        0.376999   -2.525573   -0.379795
      9          1           0        0.377899    2.525416   -0.379799
     10          1           0        2.407760    1.247311    0.275095
     11          8           0       -1.434269    0.000233    0.809734
     12          1           0       -1.790202    1.298533   -0.851115
     13          1           0       -1.790677   -1.297939   -0.851171
 ---------------------------------------------------------------------
                    Distance matrix (angstroms):
                    1          2          3          4          5
     1  C    0.000000
     2  C    1.369239   0.000000
     3  C    2.467941   1.473444   0.000000
     4  C    2.884317   2.567983   1.534346   0.000000
     5  C    2.462260   2.883075   2.568029   1.473431   0.000000
     6  C    1.452593   2.462272   2.884375   2.467915   1.369240
     7  H    1.102567   2.143443   3.472095   3.985500   3.433545
     8  H    2.154512   1.102269   2.222700   3.562335   3.972074
     9  H    3.461074   3.972074   3.562355   2.222674   1.102267
    10  H    2.200153   3.433550   3.985557   3.472080   2.143457
    11  O    3.047532   2.482214   1.433255   1.433261   2.482251
    12  H    3.942530   3.523600   2.282907   1.108111   2.220392
    13  H    3.431053   2.220386   1.108109   2.282964   3.523655
                    6          7          8          9         10
     6  C    0.000000
     7  H    2.200155   0.000000
     8  H    3.461067   2.486457   0.000000
     9  H    2.154538   4.334484   5.050989   0.000000
    10  H    1.102567   2.495554   4.334458   2.486519   0.000000
    11  O    3.047558   4.074547   3.327968   3.327986   4.074584
    12  H    3.431048   5.037183   4.420712   2.535358   4.346707
    13  H    3.942577   4.346691   2.535370   4.420741   5.037226
                   11         12         13
    11  O    0.000000
    12  H    2.137918   0.000000
    13  H    2.137962   2.596472   0.000000
 Stoichiometry    C6H6O
 Framework group  C1[X(C6H6O)]
 Deg. of freedom    33
 Full point group                 C1      NOp   1
 Largest Abelian subgroup         C1      NOp   1
 Largest concise Abelian subgroup C1      NOp   1
                         Standard orientation:                         
 ---------------------------------------------------------------------
 Center     Atomic      Atomic             Coordinates (Angstroms)
 Number     Number       Type             X           Y           Z
 ---------------------------------------------------------------------
      1          6           0       -1.446929    0.726358    0.127912
      2          6           0       -0.323496    1.441545   -0.190242
      3          6           0        0.980573    0.767130   -0.315147
      4          6           0        0.980463   -0.767217   -0.315125
      5          6           0       -0.323648   -1.441530   -0.190246
      6          6           0       -1.447014   -0.726235    0.127909
      7          1           0       -2.407758    1.247896    0.270958
      8          1           0       -0.377336    2.525505   -0.382929
      9          1           0       -0.377542   -2.525483   -0.382942
     10          1           0       -2.407906   -1.247658    0.270940
     11          8           0        1.433685   -0.000054    0.807501
     12          1           0        1.790626   -1.298302   -0.853173
     13          1           0        1.790744    1.298169   -0.853224
 ---------------------------------------------------------------------
 Rotational constants (GHZ):      4.5182512      3.5327671      2.2632149
 Standard basis: SVP (5D, 7F)
 There are   135 symmetry adapted cartesian basis functions of A   symmetry.
 There are   128 symmetry adapted basis functions of A   symmetry.
   128 basis functions,   217 primitive gaussians,   135 cartesian basis functions
    25 alpha electrons       25 beta electrons
       nuclear repulsion energy       278.5412131184 Hartrees.
 NAtoms=   13 NActive=   13 NUniq=   13 SFac= 1.00D+00 NAtFMM=   60 NAOKFM=F Big=F
 Integral buffers will be    131072 words long.
 Raffenetti 2 integral format.
 Two-electron integral symmetry is turned on.
 One-electron integrals computed using PRISM.
 NBasis=   128 RedAO= T EigKep=  3.58D-04  NBF=   128
 NBsUse=   128 1.00D-06 EigRej= -1.00D+00 NBFU=   128
 Initial guess from the checkpoint file:  "/tmp/Gau-6606.chk"
 B after Tr=     0.000000    0.000000    0.000000
         Rot=    1.000000    0.000001    0.000124   -0.000033 Ang=   0.01 deg.
 Requested convergence on RMS density matrix=1.00D-08 within 128 cycles.
 Requested convergence on MAX density matrix=1.00D-06.
 Requested convergence on             energy=1.00D-06.
 No special actions if energy rises.
 SCF Done:  E(RB-P86) =  -307.174987832     A.U. after    9 cycles
            NFock=  9  Conv=0.84D-08     -V/T= 2.0112
 Calling FoFJK, ICntrl=      2527 FMM=F ISym2X=0 I1Cent= 0 IOpClX= 0 NMat=1 NMatS=1 NMatT=0.
 ***** Axes restored to original set *****
 -------------------------------------------------------------------
 Center     Atomic                   Forces (Hartrees/Bohr)
 Number     Number              X              Y              Z
 -------------------------------------------------------------------
      1        6           0.000263376    0.000664261    0.000077277
      2        6          -0.000692025    0.000142348    0.000011736
      3        6           0.000627947   -0.001701375   -0.000424458
      4        6           0.000602405    0.001698619   -0.000431348
      5        6          -0.000689710   -0.000146107    0.000015295
      6        6           0.000261841   -0.000664263    0.000075988
      7        1          -0.000184758    0.000013159    0.000014736
      8        1           0.000092040    0.000239573   -0.000139899
      9        1           0.000094803   -0.000239080   -0.000139901
     10        1          -0.000185192   -0.000012064    0.000014984
     11        8          -0.000266197    0.000000356    0.000554013
     12        1           0.000040068   -0.000268941    0.000185321
     13        1           0.000035402    0.000273514    0.000186257
 -------------------------------------------------------------------
 Cartesian Forces:  Max     0.001701375 RMS     0.000500495

 GradGradGradGradGradGradGradGradGradGradGradGradGradGradGradGradGradGrad
 Berny optimization.
 Using GEDIIS/GDIIS optimizer.
 FormGI is forming the generalized inverse of G from B-inverse, IUseBI=4.
 Internal  Forces:  Max     0.000696056 RMS     0.000206560
 Search for a local minimum.
 Step number   3 out of a maximum of   74
 All quantities printed in internal units (Hartrees-Bohrs-Radians)
 Mixed Optimization -- En-DIIS/RFO-DIIS
 Swapping is turned off.
 Update second derivatives using D2CorX and points    1    2    3
 DE= -3.83D-05 DEPred=-2.66D-05 R= 1.44D+00
 TightC=F SS=  1.41D+00  RLast= 3.01D-02 DXNew= 5.0454D-01 9.0396D-02
 Trust test= 1.44D+00 RLast= 3.01D-02 DXMaxT set to 3.00D-01
 ITU=  1  1  0
     Eigenvalues ---    0.01153   0.01542   0.01803   0.01901   0.02021
     Eigenvalues ---    0.02259   0.02294   0.02786   0.03076   0.13383
     Eigenvalues ---    0.13982   0.15839   0.15850   0.15968   0.15995
     Eigenvalues ---    0.17919   0.17988   0.21765   0.21878   0.23830
     Eigenvalues ---    0.30789   0.31470   0.33884   0.34138   0.34363
     Eigenvalues ---    0.34400   0.34440   0.34443   0.35465   0.36312
     Eigenvalues ---    0.39690   0.51110   0.53704
 En-DIIS/RFO-DIIS IScMMF=        0 using points:     3    2
 RFO step:  Lambda=-7.06300204D-06.
 DidBck=F Rises=F RFO-DIIS coefs:    1.76867   -0.76867
 Iteration  1 RMS(Cart)=  0.00420039 RMS(Int)=  0.00001347
 Iteration  2 RMS(Cart)=  0.00001516 RMS(Int)=  0.00000253
 Iteration  3 RMS(Cart)=  0.00000000 RMS(Int)=  0.00000253
 Variable       Old X    -DE/DX   Delta X   Delta X   Delta X     New X
                                 (Linear)    (Quad)   (Total)
    R1        2.58749   0.00011   0.00060   0.00048   0.00108   2.58857
    R2        2.74500  -0.00063  -0.00258  -0.00077  -0.00334   2.74166
    R3        2.08355  -0.00017   0.00004  -0.00041  -0.00038   2.08317
    R4        2.78440  -0.00066  -0.00322  -0.00048  -0.00370   2.78070
    R5        2.08299  -0.00021   0.00007  -0.00065  -0.00058   2.08241
    R6        2.89949   0.00070   0.00472   0.00141   0.00613   2.90562
    R7        2.70846   0.00042   0.00286  -0.00021   0.00265   2.71111
    R8        2.09402  -0.00025   0.00019  -0.00093  -0.00075   2.09328
    R9        2.78438  -0.00066  -0.00321  -0.00047  -0.00368   2.78071
   R10        2.70847   0.00042   0.00286  -0.00021   0.00265   2.71112
   R11        2.09403  -0.00025   0.00018  -0.00093  -0.00075   2.09327
   R12        2.58749   0.00011   0.00059   0.00048   0.00108   2.58857
   R13        2.08298  -0.00021   0.00008  -0.00065  -0.00057   2.08241
   R14        2.08355  -0.00016   0.00003  -0.00041  -0.00038   2.08317
    A1        2.12043   0.00004   0.00059  -0.00061  -0.00002   2.12040
    A2        2.09218  -0.00009  -0.00124   0.00010  -0.00114   2.09103
    A3        2.06346   0.00005   0.00038   0.00034   0.00071   2.06417
    A4        2.10225   0.00005  -0.00080   0.00087   0.00006   2.10231
    A5        2.11086  -0.00009  -0.00003  -0.00089  -0.00092   2.10994
    A6        2.06977   0.00005   0.00078   0.00000   0.00078   2.07055
    A7        2.04615  -0.00009  -0.00018  -0.00078  -0.00097   2.04518
    A8        2.04699   0.00002  -0.00065   0.00039  -0.00026   2.04673
    A9        2.05884   0.00022   0.00123   0.00169   0.00293   2.06176
   A10        2.07064  -0.00013   0.00049  -0.00218  -0.00169   2.06895
   A11        1.98857  -0.00012  -0.00186   0.00034  -0.00152   1.98705
   A12        2.04622  -0.00009  -0.00025  -0.00080  -0.00106   2.04516
   A13        2.07055  -0.00012   0.00060  -0.00217  -0.00157   2.06898
   A14        2.04705   0.00001  -0.00073   0.00039  -0.00033   2.04672
   A15        2.05886   0.00022   0.00122   0.00169   0.00290   2.06176
   A16        1.98850  -0.00012  -0.00180   0.00037  -0.00143   1.98706
   A17        2.10223   0.00005  -0.00077   0.00087   0.00009   2.10232
   A18        2.06975   0.00005   0.00080   0.00001   0.00081   2.07055
   A19        2.11091  -0.00010  -0.00009  -0.00089  -0.00098   2.10992
   A20        2.12041   0.00004   0.00061  -0.00061   0.00000   2.12041
   A21        2.06345   0.00005   0.00038   0.00034   0.00072   2.06417
   A22        2.09220  -0.00009  -0.00127   0.00010  -0.00117   2.09103
    D1       -0.18623  -0.00004  -0.00261  -0.00351  -0.00612  -0.19234
    D2        2.92834  -0.00007  -0.00496  -0.00446  -0.00942   2.91891
    D3        3.08564  -0.00003  -0.00011  -0.00199  -0.00210   3.08353
    D4       -0.08299  -0.00006  -0.00247  -0.00294  -0.00541  -0.08840
    D5        0.00001   0.00000   0.00000   0.00000   0.00001   0.00001
    D6       -3.01338   0.00002   0.00262   0.00146   0.00409  -3.00930
    D7        3.01340  -0.00002  -0.00256  -0.00151  -0.00408   3.00932
    D8        0.00001   0.00000   0.00006  -0.00005   0.00000   0.00001
    D9        0.17850   0.00003   0.00244   0.00335   0.00578   0.18428
   D10       -0.96778   0.00012   0.00314   0.00390   0.00703  -0.96074
   D11        2.83269  -0.00001   0.00581   0.00006   0.00586   2.83855
   D12       -2.93669   0.00006   0.00475   0.00429   0.00904  -2.92765
   D13        2.20022   0.00014   0.00545   0.00484   0.01029   2.21051
   D14       -0.28250   0.00002   0.00812   0.00100   0.00912  -0.27338
   D15        0.00003   0.00000  -0.00005   0.00001  -0.00004  -0.00001
   D16        2.65086   0.00006   0.00358  -0.00223   0.00135   2.65221
   D17       -2.65078  -0.00006  -0.00366   0.00221  -0.00144  -2.65222
   D18        0.00005   0.00000  -0.00003  -0.00003  -0.00005   0.00000
   D19       -0.17854  -0.00003  -0.00236  -0.00336  -0.00572  -0.18426
   D20        2.93666  -0.00006  -0.00476  -0.00427  -0.00903   2.92764
   D21        0.96777  -0.00012  -0.00311  -0.00392  -0.00703   0.96074
   D22       -2.20021  -0.00015  -0.00551  -0.00482  -0.01033  -2.21054
   D23       -2.83272   0.00001  -0.00579  -0.00004  -0.00582  -2.83855
   D24        0.28248  -0.00002  -0.00819  -0.00094  -0.00913   0.27335
   D25        0.18623   0.00004   0.00258   0.00351   0.00609   0.19232
   D26       -3.08564   0.00003   0.00004   0.00205   0.00209  -3.08355
   D27       -2.92835   0.00007   0.00503   0.00442   0.00945  -2.91890
   D28        0.08297   0.00006   0.00248   0.00296   0.00544   0.08841
         Item               Value     Threshold  Converged?
 Maximum Force            0.000696     0.000450     NO 
 RMS     Force            0.000207     0.000300     YES
 Maximum Displacement     0.018395     0.001800     NO 
 RMS     Displacement     0.004201     0.001200     NO 
 Predicted change in Energy=-1.323119D-05
 GradGradGradGradGradGradGradGradGradGradGradGradGradGradGradGradGradGrad

                          Input orientation:                          
 ---------------------------------------------------------------------
 Center     Atomic      Atomic             Coordinates (Angstroms)
 Number     Number       Type             X           Y           Z
 ---------------------------------------------------------------------
      1          6           0        1.445460   -0.725697    0.134804
      2          6           0        0.322934   -1.441017   -0.188671
      3          6           0       -0.980132   -0.768631   -0.311897
      4          6           0       -0.979863    0.768956   -0.311895
      5          6           0        0.323453    1.440858   -0.188654
      6          6           0        1.445721    0.725127    0.134805
      7          1           0        2.405607   -1.247950    0.278274
      8          1           0        0.379934   -2.523019   -0.389529
      9          1           0        0.380864    2.522837   -0.389520
     10          1           0        2.406056    1.247037    0.278260
     11          8           0       -1.431942    0.000235    0.811915
     12          1           0       -1.791752    1.298397   -0.848137
     13          1           0       -1.792220   -1.297763   -0.848146
 ---------------------------------------------------------------------
                    Distance matrix (angstroms):
                    1          2          3          4          5
     1  C    0.000000
     2  C    1.369812   0.000000
     3  C    2.466755   1.471485   0.000000
     4  C    2.883699   2.568355   1.537588   0.000000
     5  C    2.461195   2.881875   2.568339   1.471486   0.000000
     6  C    1.450823   2.461192   2.883681   2.466763   1.369811
     7  H    1.102367   2.143091   3.470054   3.984673   3.432648
     8  H    2.154214   1.101962   2.221189   3.562608   3.969365
     9  H    3.458505   3.969363   3.562597   2.221194   1.101963
    10  H    2.198864   3.432646   3.984655   3.470057   2.143085
    11  O    3.043830   2.481526   1.434657   1.434663   2.481521
    12  H    3.942419   3.522951   2.284488   1.107712   2.220203
    13  H    3.431621   2.220204   1.107714   2.284473   3.522931
                    6          7          8          9         10
     6  C    0.000000
     7  H    2.198863   0.000000
     8  H    3.458508   2.484977   0.000000
     9  H    2.154205   4.331786   5.045857   0.000000
    10  H    1.102367   2.494987   4.331793   2.484955   0.000000
    11  O    3.043829   4.070568   3.330642   3.330651   4.070569
    12  H    3.431624   5.036914   4.419249   2.535713   4.346608
    13  H    3.942402   4.346614   2.535712   4.419233   5.036896
                   11         12         13
    11  O    0.000000
    12  H    2.137863   0.000000
    13  H    2.137850   2.596160   0.000000
 Stoichiometry    C6H6O
 Framework group  C1[X(C6H6O)]
 Deg. of freedom    33
 Full point group                 C1      NOp   1
 Largest Abelian subgroup         C1      NOp   1
 Largest concise Abelian subgroup C1      NOp   1
                         Standard orientation:                         
 ---------------------------------------------------------------------
 Center     Atomic      Atomic             Coordinates (Angstroms)
 Number     Number       Type             X           Y           Z
 ---------------------------------------------------------------------
      1          6           0       -1.445747    0.725398    0.129782
      2          6           0       -0.323074    1.440935   -0.192702
      3          6           0        0.980229    0.768801   -0.314781
      4          6           0        0.980257   -0.768787   -0.314782
      5          6           0       -0.323038   -1.440940   -0.192692
      6          6           0       -1.445729   -0.725425    0.129779
      7          1           0       -2.406120    1.247467    0.272406
      8          1           0       -0.380105    2.522927   -0.393608
      9          1           0       -0.380064   -2.522930   -0.393610
     10          1           0       -2.406089   -1.247520    0.272388
     11          8           0        1.431197    0.000018    0.809427
     12          1           0        1.792719   -1.298070   -0.850310
     13          1           0        1.792688    1.298089   -0.850313
 ---------------------------------------------------------------------
 Rotational constants (GHZ):      4.5163978      3.5360353      2.2658532
 Standard basis: SVP (5D, 7F)
 There are   135 symmetry adapted cartesian basis functions of A   symmetry.
 There are   128 symmetry adapted basis functions of A   symmetry.
   128 basis functions,   217 primitive gaussians,   135 cartesian basis functions
    25 alpha electrons       25 beta electrons
       nuclear repulsion energy       278.5758323475 Hartrees.
 NAtoms=   13 NActive=   13 NUniq=   13 SFac= 1.00D+00 NAtFMM=   60 NAOKFM=F Big=F
 Integral buffers will be    131072 words long.
 Raffenetti 2 integral format.
 Two-electron integral symmetry is turned on.
 One-electron integrals computed using PRISM.
 NBasis=   128 RedAO= T EigKep=  3.59D-04  NBF=   128
 NBsUse=   128 1.00D-06 EigRej= -1.00D+00 NBFU=   128
 Initial guess from the checkpoint file:  "/tmp/Gau-6606.chk"
 B after Tr=     0.000000    0.000000    0.000000
         Rot=    1.000000    0.000000    0.000181   -0.000029 Ang=  -0.02 deg.
 Requested convergence on RMS density matrix=1.00D-08 within 128 cycles.
 Requested convergence on MAX density matrix=1.00D-06.
 Requested convergence on             energy=1.00D-06.
 No special actions if energy rises.
 SCF Done:  E(RB-P86) =  -307.175001964     A.U. after    9 cycles
            NFock=  9  Conv=0.83D-08     -V/T= 2.0112
 Calling FoFJK, ICntrl=      2527 FMM=F ISym2X=0 I1Cent= 0 IOpClX= 0 NMat=1 NMatS=1 NMatT=0.
 ***** Axes restored to original set *****
 -------------------------------------------------------------------
 Center     Atomic                   Forces (Hartrees/Bohr)
 Number     Number              X              Y              Z
 -------------------------------------------------------------------
      1        6           0.000101249   -0.000125679    0.000012124
      2        6          -0.000117168    0.000040789    0.000040719
      3        6          -0.000096887   -0.000212295    0.000283756
      4        6          -0.000089968    0.000210333    0.000288999
      5        6          -0.000117592   -0.000038491    0.000037970
      6        6           0.000101361    0.000125300    0.000012699
      7        1          -0.000035017    0.000004566    0.000013333
      8        1           0.000022298    0.000016937   -0.000043048
      9        1           0.000021387   -0.000017243   -0.000042505
     10        1          -0.000034761   -0.000004845    0.000013966
     11        8           0.000252832    0.000001548   -0.000700266
     12        1          -0.000004655   -0.000097062    0.000040979
     13        1          -0.000003079    0.000096141    0.000041276
 -------------------------------------------------------------------
 Cartesian Forces:  Max     0.000700266 RMS     0.000155364

 GradGradGradGradGradGradGradGradGradGradGradGradGradGradGradGradGradGrad
 Berny optimization.
 Using GEDIIS/GDIIS optimizer.
 FormGI is forming the generalized inverse of G from B-inverse, IUseBI=4.
 Internal  Forces:  Max     0.000383096 RMS     0.000084391
 Search for a local minimum.
 Step number   4 out of a maximum of   74
 All quantities printed in internal units (Hartrees-Bohrs-Radians)
 Mixed Optimization -- En-DIIS/RFO-DIIS
 Swapping is turned off.
 Update second derivatives using D2CorX and points    1    2    3    4
 DE= -1.41D-05 DEPred=-1.32D-05 R= 1.07D+00
 TightC=F SS=  1.41D+00  RLast= 3.55D-02 DXNew= 5.0454D-01 1.0662D-01
 Trust test= 1.07D+00 RLast= 3.55D-02 DXMaxT set to 3.00D-01
 ITU=  1  1  1  0
     Eigenvalues ---    0.01024   0.01542   0.01804   0.01902   0.02022
     Eigenvalues ---    0.02250   0.02293   0.02781   0.03095   0.12500
     Eigenvalues ---    0.13983   0.15829   0.15878   0.15961   0.15993
     Eigenvalues ---    0.17810   0.18009   0.21609   0.21870   0.23588
     Eigenvalues ---    0.30805   0.33212   0.33884   0.34126   0.34360
     Eigenvalues ---    0.34400   0.34440   0.34445   0.34709   0.37573
     Eigenvalues ---    0.41846   0.51103   0.54338
 En-DIIS/RFO-DIIS IScMMF=        0 using points:     4    3    2
 RFO step:  Lambda=-8.17054152D-07.
 DidBck=F Rises=F RFO-DIIS coefs:    1.16450   -0.23292    0.06842
 Iteration  1 RMS(Cart)=  0.00083099 RMS(Int)=  0.00000066
 Iteration  2 RMS(Cart)=  0.00000062 RMS(Int)=  0.00000027
 Variable       Old X    -DE/DX   Delta X   Delta X   Delta X     New X
                                 (Linear)    (Quad)   (Total)
    R1        2.58857   0.00007   0.00012   0.00015   0.00028   2.58884
    R2        2.74166   0.00014  -0.00032   0.00037   0.00004   2.74170
    R3        2.08317  -0.00003  -0.00007  -0.00003  -0.00010   2.08307
    R4        2.78070  -0.00006  -0.00032  -0.00029  -0.00061   2.78010
    R5        2.08241  -0.00001  -0.00010   0.00007  -0.00003   2.08238
    R6        2.90562   0.00017   0.00059   0.00114   0.00172   2.90734
    R7        2.71111  -0.00038   0.00018  -0.00098  -0.00080   2.71031
    R8        2.09328  -0.00006  -0.00014  -0.00008  -0.00022   2.09306
    R9        2.78071  -0.00006  -0.00032  -0.00029  -0.00061   2.78010
   R10        2.71112  -0.00038   0.00018  -0.00099  -0.00081   2.71031
   R11        2.09327  -0.00006  -0.00014  -0.00008  -0.00022   2.09305
   R12        2.58857   0.00007   0.00012   0.00015   0.00028   2.58884
   R13        2.08241  -0.00001  -0.00010   0.00007  -0.00003   2.08238
   R14        2.08317  -0.00003  -0.00006  -0.00003  -0.00010   2.08307
    A1        2.12040  -0.00002  -0.00006   0.00003  -0.00003   2.12037
    A2        2.09103   0.00000  -0.00008  -0.00012  -0.00020   2.09083
    A3        2.06417   0.00002   0.00008   0.00008   0.00016   2.06433
    A4        2.10231   0.00002   0.00008   0.00001   0.00009   2.10240
    A5        2.10994  -0.00002  -0.00015  -0.00009  -0.00024   2.10970
    A6        2.07055   0.00000   0.00006   0.00006   0.00011   2.07066
    A7        2.04518   0.00000  -0.00014  -0.00005  -0.00020   2.04498
    A8        2.04673   0.00006   0.00001  -0.00004  -0.00003   2.04670
    A9        2.06176   0.00007   0.00037   0.00054   0.00091   2.06268
   A10        2.06895  -0.00006  -0.00032  -0.00022  -0.00054   2.06842
   A11        1.98705  -0.00004  -0.00008  -0.00036  -0.00044   1.98660
   A12        2.04516   0.00000  -0.00015  -0.00004  -0.00019   2.04496
   A13        2.06898  -0.00006  -0.00031  -0.00023  -0.00054   2.06844
   A14        2.04672   0.00006   0.00001  -0.00004  -0.00003   2.04669
   A15        2.06176   0.00007   0.00037   0.00054   0.00091   2.06268
   A16        1.98706  -0.00004  -0.00008  -0.00037  -0.00044   1.98662
   A17        2.10232   0.00002   0.00008   0.00001   0.00009   2.10241
   A18        2.07055   0.00000   0.00006   0.00005   0.00012   2.07067
   A19        2.10992  -0.00002  -0.00015  -0.00008  -0.00024   2.10969
   A20        2.12041  -0.00002  -0.00005   0.00003  -0.00003   2.12038
   A21        2.06417   0.00002   0.00008   0.00008   0.00016   2.06433
   A22        2.09103   0.00000  -0.00008  -0.00012  -0.00020   2.09083
    D1       -0.19234   0.00003  -0.00077  -0.00004  -0.00082  -0.19316
    D2        2.91891   0.00002  -0.00111  -0.00092  -0.00202   2.91689
    D3        3.08353   0.00001  -0.00034   0.00010  -0.00024   3.08329
    D4       -0.08840  -0.00001  -0.00067  -0.00077  -0.00144  -0.08984
    D5        0.00001   0.00000   0.00000  -0.00001  -0.00001   0.00000
    D6       -3.00930  -0.00002   0.00044   0.00015   0.00059  -3.00871
    D7        3.00932   0.00002  -0.00044  -0.00017  -0.00061   3.00871
    D8        0.00001   0.00000   0.00000  -0.00001  -0.00001   0.00000
    D9        0.18428  -0.00003   0.00073   0.00004   0.00077   0.18506
   D10       -0.96074   0.00010   0.00088   0.00064   0.00151  -0.95923
   D11        2.83855  -0.00002   0.00045   0.00055   0.00100   2.83956
   D12       -2.92765  -0.00001   0.00106   0.00090   0.00196  -2.92569
   D13        2.21051   0.00012   0.00121   0.00149   0.00270   2.21321
   D14       -0.27338  -0.00001   0.00078   0.00141   0.00219  -0.27119
   D15       -0.00001   0.00000   0.00000   0.00000   0.00000  -0.00001
   D16        2.65221   0.00004  -0.00010   0.00074   0.00064   2.65285
   D17       -2.65222  -0.00004   0.00009  -0.00073  -0.00065  -2.65287
   D18        0.00000   0.00000  -0.00001   0.00000   0.00000  -0.00001
   D19       -0.18426   0.00002  -0.00073  -0.00004  -0.00078  -0.18504
   D20        2.92764   0.00001  -0.00106  -0.00088  -0.00194   2.92569
   D21        0.96074  -0.00010  -0.00088  -0.00063  -0.00151   0.95923
   D22       -2.21054  -0.00012  -0.00121  -0.00147  -0.00268  -2.21322
   D23       -2.83855   0.00002  -0.00044  -0.00056  -0.00100  -2.83955
   D24        0.27335   0.00001  -0.00077  -0.00140  -0.00217   0.27118
   D25        0.19232  -0.00003   0.00077   0.00006   0.00083   0.19316
   D26       -3.08355  -0.00001   0.00034  -0.00009   0.00025  -3.08330
   D27       -2.91890  -0.00001   0.00111   0.00091   0.00202  -2.91688
   D28        0.08841   0.00001   0.00067   0.00076   0.00144   0.08985
         Item               Value     Threshold  Converged?
 Maximum Force            0.000383     0.000450     YES
 RMS     Force            0.000084     0.000300     YES
 Maximum Displacement     0.003512     0.001800     NO 
 RMS     Displacement     0.000831     0.001200     YES
 Predicted change in Energy=-9.533230D-07
 GradGradGradGradGradGradGradGradGradGradGradGradGradGradGradGradGradGrad

                          Input orientation:                          
 ---------------------------------------------------------------------
 Center     Atomic      Atomic             Coordinates (Angstroms)
 Number     Number       Type             X           Y           Z
 ---------------------------------------------------------------------
      1          6           0        1.445333   -0.725708    0.135430
      2          6           0        0.322859   -1.441073   -0.188743
      3          6           0       -0.980074   -0.769089   -0.311721
      4          6           0       -0.979803    0.769411   -0.311723
      5          6           0        0.323379    1.440913   -0.188732
      6          6           0        1.445593    0.725138    0.135435
      7          1           0        2.405354   -1.248094    0.278865
      8          1           0        0.380513   -2.522691   -0.391387
      9          1           0        0.381441    2.522511   -0.391374
     10          1           0        2.405802    1.247180    0.278868
     11          8           0       -1.431236    0.000242    0.811492
     12          1           0       -1.792284    1.298272   -0.847401
     13          1           0       -1.792757   -1.297642   -0.847399
 ---------------------------------------------------------------------
                    Distance matrix (angstroms):
                    1          2          3          4          5
     1  C    0.000000
     2  C    1.369957   0.000000
     3  C    2.466663   1.471163   0.000000
     4  C    2.883854   2.568714   1.538500   0.000000
     5  C    2.461323   2.881986   2.568701   1.471165   0.000000
     6  C    1.450847   2.461320   2.883839   2.466669   1.369957
     7  H    1.102316   2.143055   3.469779   3.984772   3.432786
     8  H    2.154189   1.101947   2.220960   3.562968   3.969193
     9  H    3.458369   3.969192   3.562962   2.220966   1.101948
    10  H    2.198945   3.432785   3.984757   3.469781   2.143050
    11  O    3.042814   2.480869   1.434233   1.434234   2.480859
    12  H    3.942666   3.523020   2.284867   1.107596   2.220411
    13  H    3.431951   2.220412   1.107598   2.284853   3.523004
                    6          7          8          9         10
     6  C    0.000000
     7  H    2.198945   0.000000
     8  H    3.458372   2.484717   0.000000
     9  H    2.154181   4.331616   5.045202   0.000000
    10  H    1.102316   2.495273   4.331624   2.484699   0.000000
    11  O    3.042808   4.069577   3.330847   3.330845   4.069570
    12  H    3.431953   5.037124   4.419135   2.536100   4.346840
    13  H    3.942653   4.346845   2.536098   4.419125   5.037111
                   11         12         13
    11  O    0.000000
    12  H    2.137092   0.000000
    13  H    2.137082   2.595914   0.000000
 Stoichiometry    C6H6O
 Framework group  C1[X(C6H6O)]
 Deg. of freedom    33
 Full point group                 C1      NOp   1
 Largest Abelian subgroup         C1      NOp   1
 Largest concise Abelian subgroup C1      NOp   1
                         Standard orientation:                         
 ---------------------------------------------------------------------
 Center     Atomic      Atomic             Coordinates (Angstroms)
 Number     Number       Type             X           Y           Z
 ---------------------------------------------------------------------
      1          6           0       -1.445586    0.725408    0.129939
      2          6           0       -0.322880    1.440991   -0.192946
      3          6           0        0.980324    0.769261   -0.314430
      4          6           0        0.980352   -0.769240   -0.314437
      5          6           0       -0.322840   -1.440995   -0.192942
      6          6           0       -1.445564   -0.725439    0.129940
      7          1           0       -2.405872    1.247606    0.272274
      8          1           0       -0.380511    2.522599   -0.395653
      9          1           0       -0.380460   -2.522603   -0.395653
     10          1           0       -2.405835   -1.247667    0.272271
     11          8           0        1.430348    0.000015    0.809297
     12          1           0        1.793549   -1.297941   -0.849184
     13          1           0        1.793518    1.297973   -0.849176
 ---------------------------------------------------------------------
 Rotational constants (GHZ):      4.5159150      3.5372902      2.2661276
 Standard basis: SVP (5D, 7F)
 There are   135 symmetry adapted cartesian basis functions of A   symmetry.
 There are   128 symmetry adapted basis functions of A   symmetry.
   128 basis functions,   217 primitive gaussians,   135 cartesian basis functions
    25 alpha electrons       25 beta electrons
       nuclear repulsion energy       278.5911927286 Hartrees.
[...]
   D22       -2.21525  -0.00001  -0.00001  -0.00006  -0.00008  -2.21533
   D23       -2.83968   0.00000   0.00007  -0.00005   0.00002  -2.83965
   D24        0.27074   0.00000   0.00018  -0.00010   0.00008   0.27083
   D25        0.19436   0.00000   0.00008   0.00002   0.00010   0.19446
   D26       -3.08283   0.00000   0.00000   0.00000   0.00000  -3.08283
   D27       -2.91536   0.00000  -0.00003   0.00006   0.00004  -2.91532
   D28        0.09064   0.00000  -0.00011   0.00005  -0.00006   0.09058
         Item               Value     Threshold  Converged?
 Maximum Force            0.000042     0.000450     YES
 RMS     Force            0.000011     0.000300     YES
 Maximum Displacement     0.000219     0.001800     YES
 RMS     Displacement     0.000065     0.001200     YES
 Predicted change in Energy=-1.700646D-08
 Optimization completed.
    -- Stationary point found.
                           ----------------------------
                           !   Optimized Parameters   !
                           ! (Angstroms and Degrees)  !
 --------------------------                            --------------------------
 ! Name  Definition              Value          Derivative Info.                !
 --------------------------------------------------------------------------------
 ! R1    R(1,2)                  1.37           -DE/DX =    0.0                 !
 ! R2    R(1,6)                  1.4509         -DE/DX =    0.0                 !
 ! R3    R(1,7)                  1.1023         -DE/DX =    0.0                 !
 ! R4    R(2,3)                  1.471          -DE/DX =    0.0                 !
 ! R5    R(2,8)                  1.102          -DE/DX =    0.0                 !
 ! R6    R(3,4)                  1.5391         -DE/DX =    0.0                 !
 ! R7    R(3,11)                 1.4337         -DE/DX =    0.0                 !
 ! R8    R(3,13)                 1.1076         -DE/DX =    0.0                 !
 ! R9    R(4,5)                  1.471          -DE/DX =    0.0                 !
 ! R10   R(4,11)                 1.4337         -DE/DX =    0.0                 !
 ! R11   R(4,12)                 1.1076         -DE/DX =    0.0                 !
 ! R12   R(5,6)                  1.37           -DE/DX =    0.0                 !
 ! R13   R(5,9)                  1.102          -DE/DX =    0.0                 !
 ! R14   R(6,10)                 1.1023         -DE/DX =    0.0                 !
 ! A1    A(2,1,6)              121.4837         -DE/DX =    0.0                 !
 ! A2    A(2,1,7)              119.7966         -DE/DX =    0.0                 !
 ! A3    A(6,1,7)              118.2768         -DE/DX =    0.0                 !
 ! A4    A(1,2,3)              120.4665         -DE/DX =    0.0                 !
 ! A5    A(1,2,8)              120.8673         -DE/DX =    0.0                 !
 ! A6    A(3,2,8)              118.6417         -DE/DX =    0.0                 !
 ! A7    A(2,3,4)              117.1551         -DE/DX =    0.0                 !
 ! A8    A(2,3,11)             117.2807         -DE/DX =    0.0                 !
 ! A9    A(2,3,13)             118.2107         -DE/DX =    0.0                 !
 ! A10   A(4,3,13)             118.4749         -DE/DX =    0.0                 !
 ! A11   A(11,3,13)            113.8384         -DE/DX =    0.0                 !
 ! A12   A(3,4,5)              117.1548         -DE/DX =    0.0                 !
 ! A13   A(3,4,12)             118.4753         -DE/DX =    0.0                 !
 ! A14   A(5,4,11)             117.2804         -DE/DX =    0.0                 !
 ! A15   A(5,4,12)             118.2106         -DE/DX =    0.0                 !
 ! A16   A(11,4,12)            113.8388         -DE/DX =    0.0                 !
 ! A17   A(4,5,6)              120.4665         -DE/DX =    0.0                 !
 ! A18   A(4,5,9)              118.6418         -DE/DX =    0.0                 !
 ! A19   A(6,5,9)              120.8671         -DE/DX =    0.0                 !
 ! A20   A(1,6,5)              121.4838         -DE/DX =    0.0                 !
 ! A21   A(1,6,10)             118.2768         -DE/DX =    0.0                 !
 ! A22   A(5,6,10)             119.7965         -DE/DX =    0.0                 !
 ! D1    D(6,1,2,3)            -11.136          -DE/DX =    0.0                 !
 ! D2    D(6,1,2,8)            167.0375         -DE/DX =    0.0                 !
 ! D3    D(7,1,2,3)            176.6332         -DE/DX =    0.0                 !
 ! D4    D(7,1,2,8)             -5.1932         -DE/DX =    0.0                 !
 ! D5    D(2,1,6,5)             -0.0002         -DE/DX =    0.0                 !
 ! D6    D(2,1,6,10)          -172.3452         -DE/DX =    0.0                 !
 ! D7    D(7,1,6,5)            172.3448         -DE/DX =    0.0                 !
 ! D8    D(7,1,6,10)            -0.0002         -DE/DX =    0.0                 !
 ! D9    D(1,2,3,4)             10.6678         -DE/DX =    0.0                 !
 ! D10   D(1,2,3,11)           -54.8615         -DE/DX =    0.0                 !
 ! D11   D(1,2,3,13)           162.7016         -DE/DX =    0.0                 !
 ! D12   D(8,2,3,4)           -167.5459         -DE/DX =    0.0                 !
 ! D13   D(8,2,3,11)           126.9248         -DE/DX =    0.0                 !
 ! D14   D(8,2,3,13)           -15.5121         -DE/DX =    0.0                 !
 ! D15   D(2,3,4,5)             -0.0003         -DE/DX =    0.0                 !
 ! D16   D(2,3,4,12)           151.9578         -DE/DX =    0.0                 !
 ! D17   D(13,3,4,5)          -151.9583         -DE/DX =    0.0                 !
 ! D18   D(13,3,4,12)           -0.0003         -DE/DX =    0.0                 !
 ! D19   D(3,4,5,6)            -10.6675         -DE/DX =    0.0                 !
 ! D20   D(3,4,5,9)            167.5464         -DE/DX =    0.0                 !
 ! D21   D(11,4,5,6)            54.8617         -DE/DX =    0.0                 !
 ! D22   D(11,4,5,9)          -126.9244         -DE/DX =    0.0                 !
 ! D23   D(12,4,5,6)          -162.7014         -DE/DX =    0.0                 !
 ! D24   D(12,4,5,9)            15.5125         -DE/DX =    0.0                 !
 ! D25   D(4,5,6,1)             11.1362         -DE/DX =    0.0                 !
 ! D26   D(4,5,6,10)          -176.633          -DE/DX =    0.0                 !
 ! D27   D(9,5,6,1)           -167.0376         -DE/DX =    0.0                 !
 ! D28   D(9,5,6,10)             5.1932         -DE/DX =    0.0                 !
 --------------------------------------------------------------------------------
 GradGradGradGradGradGradGradGradGradGradGradGradGradGradGradGradGradGrad

                          Input orientation:                          
 ---------------------------------------------------------------------
 Center     Atomic      Atomic             Coordinates (Angstroms)
 Number     Number       Type             X           Y           Z
 ---------------------------------------------------------------------
      1          6           0        1.445228   -0.725709    0.135974
      2          6           0        0.322836   -1.441004   -0.188893
      3          6           0       -0.980211   -0.769385   -0.311184
      4          6           0       -0.979932    0.769706   -0.311185
      5          6           0        0.323362    1.440848   -0.188888
      6          6           0        1.445492    0.725142    0.135979
      7          1           0        2.405259   -1.248079    0.279282
      8          1           0        0.380932   -2.522355   -0.392905
      9          1           0        0.381855    2.522179   -0.392890
     10          1           0        2.405712    1.247162    0.279294
     11          8           0       -1.430724    0.000243    0.811373
     12          1           0       -1.792607    1.297928   -0.847175
     13          1           0       -1.793083   -1.297306   -0.847172
 ---------------------------------------------------------------------
                    Distance matrix (angstroms):
                    1          2          3          4          5
     1  C    0.000000
     2  C    1.370018   0.000000
     3  C    2.466701   1.471040   0.000000
     4  C    2.884029   2.568930   1.539092   0.000000
     5  C    2.461319   2.881853   2.568928   1.471041   0.000000
     6  C    1.450852   2.461318   2.884025   2.466703   1.370018
     7  H    1.102300   2.143103   3.469756   3.984925   3.432755
     8  H    2.154153   1.101959   2.220876   3.563186   3.968868
     9  H    3.458213   3.968869   3.563186   2.220878   1.101960
    10  H    2.198929   3.432755   3.984921   3.469757   2.143103
    11  O    3.042083   2.480464   1.433676   1.433675   2.480460
    12  H    3.942749   3.522809   2.284963   1.107585   2.220607
    13  H    3.432194   2.220607   1.107585   2.284959   3.522807
                    6          7          8          9         10
     6  C    0.000000
     7  H    2.198929   0.000000
     8  H    3.458214   2.484656   0.000000
     9  H    2.154151   4.331377   5.044534   0.000000
    10  H    1.102300   2.495241   4.331379   2.484652   0.000000
    11  O    3.042080   4.068930   3.331049   3.331044   4.068925
    12  H    3.432195   5.037175   4.418732   2.536425   4.347113
    13  H    3.942746   4.347114   2.536423   4.418732   5.037174
                   11         12         13
    11  O    0.000000
    12  H    2.136756   0.000000
    13  H    2.136753   2.595234   0.000000
 Stoichiometry    C6H6O
 Framework group  C1[X(C6H6O)]
 Deg. of freedom    33
 Full point group                 C1      NOp   1
 Largest Abelian subgroup         C1      NOp   1
 Largest concise Abelian subgroup C1      NOp   1
                         Standard orientation:                         
 ---------------------------------------------------------------------
 Center     Atomic      Atomic             Coordinates (Angstroms)
 Number     Number       Type             X           Y           Z
 ---------------------------------------------------------------------
      1          6           0       -1.445471    0.725421    0.130136
      2          6           0       -0.322801    1.440926   -0.193305
      3          6           0        0.980525    0.769550   -0.313942
      4          6           0        0.980534   -0.769542   -0.313946
      5          6           0       -0.322789   -1.440927   -0.193306
      6          6           0       -1.445464   -0.725431    0.130137
      7          1           0       -2.405781    1.247611    0.272225
      8          1           0       -0.380839    2.522266   -0.397388
      9          1           0       -0.380821   -2.522268   -0.397385
     10          1           0       -2.405768   -1.247630    0.272231
     11          8           0        1.429756    0.000003    0.809185
     12          1           0        1.793988   -1.297610   -0.848905
     13          1           0        1.793979    1.297624   -0.848896
 ---------------------------------------------------------------------
 Rotational constants (GHZ):      4.5160273      3.5379722      2.2663558

 **********************************************************************

            Population analysis using the SCF density.

 **********************************************************************

 Orbital symmetries:
       Occupied  (A) (A) (A) (A) (A) (A) (A) (A) (A) (A) (A) (A)
                 (A) (A) (A) (A) (A) (A) (A) (A) (A) (A) (A) (A)
                 (A)
       Virtual   (A) (A) (A) (A) (A) (A) (A) (A) (A) (A) (A) (A)
                 (A) (A) (A) (A) (A) (A) (A) (A) (A) (A) (A) (A)
                 (A) (A) (A) (A) (A) (A) (A) (A) (A) (A) (A) (A)
                 (A) (A) (A) (A) (A) (A) (A) (A) (A) (A) (A) (A)
                 (A) (A) (A) (A) (A) (A) (A) (A) (A) (A) (A) (A)
                 (A) (A) (A) (A) (A) (A) (A) (A) (A) (A) (A) (A)
                 (A) (A) (A) (A) (A) (A) (A) (A) (A) (A) (A) (A)
                 (A) (A) (A) (A) (A) (A) (A) (A) (A) (A) (A) (A)
                 (A) (A) (A) (A) (A) (A) (A)
 The electronic state is 1-A.
 Alpha  occ. eigenvalues --  -18.79330  -9.97647  -9.97647  -9.92729  -9.92726
 Alpha  occ. eigenvalues --   -9.92492  -9.92489  -0.98470  -0.74549  -0.68141
 Alpha  occ. eigenvalues --   -0.62167  -0.56587  -0.53205  -0.48409  -0.44037
 Alpha  occ. eigenvalues --   -0.42828  -0.40643  -0.39073  -0.36263  -0.33228
 Alpha  occ. eigenvalues --   -0.32061  -0.31950  -0.25273  -0.22698  -0.21193
 Alpha virt. eigenvalues --   -0.08162  -0.00364   0.03216   0.07236   0.07399
 Alpha virt. eigenvalues --    0.09777   0.10596   0.12229   0.12820   0.13248
 Alpha virt. eigenvalues --    0.21702   0.22031   0.22160   0.26351   0.33641
 Alpha virt. eigenvalues --    0.36323   0.37207   0.39786   0.40195   0.40976
 Alpha virt. eigenvalues --    0.42858   0.44134   0.46406   0.46482   0.48571
 Alpha virt. eigenvalues --    0.49271   0.50925   0.55142   0.56788   0.58114
 Alpha virt. eigenvalues --    0.58598   0.60477   0.61051   0.64015   0.65338
 Alpha virt. eigenvalues --    0.66730   0.67431   0.68642   0.71974   0.76558
 Alpha virt. eigenvalues --    0.80459   0.83961   0.88594   0.93715   1.00362
 Alpha virt. eigenvalues --    1.00401   1.07535   1.14988   1.19755   1.24302
 Alpha virt. eigenvalues --    1.24371   1.28210   1.30143   1.36737   1.45307
 Alpha virt. eigenvalues --    1.46807   1.52766   1.56474   1.62987   1.63825
 Alpha virt. eigenvalues --    1.64520   1.65390   1.65702   1.68585   1.69897
 Alpha virt. eigenvalues --    1.71865   1.73321   1.81895   1.84332   1.84611
 Alpha virt. eigenvalues --    1.86781   1.89616   1.90116   1.91786   1.96917
 Alpha virt. eigenvalues --    1.98075   2.00888   2.01594   2.08639   2.13313
 Alpha virt. eigenvalues --    2.18193   2.19455   2.24008   2.27898   2.35202
 Alpha virt. eigenvalues --    2.41110   2.43436   2.48124   2.59963   2.62846
 Alpha virt. eigenvalues --    2.63139   2.63778   2.71518   2.72339   2.75420
 Alpha virt. eigenvalues --    2.80601   2.89603   2.91116   3.03456   3.05277
 Alpha virt. eigenvalues --    3.22413   3.31038   3.41294
          Condensed to atoms (all electrons):
               1          2          3          4          5          6
     1  C    5.059862   0.369439   0.071761  -0.097004   0.037958   0.256786
     2  C    0.369439   5.076493   0.253290   0.037368  -0.073119   0.037958
     3  C    0.071761   0.253290   5.058947   0.054396   0.037368  -0.097004
     4  C   -0.097004   0.037368   0.054396   5.058948   0.253290   0.071760
     5  C    0.037958  -0.073119   0.037368   0.253290   5.076492   0.369440
     6  C    0.256786   0.037958  -0.097004   0.071760   0.369440   5.059860
     7  H    0.424932  -0.064330   0.012861  -0.001212   0.014529  -0.066494
     8  H   -0.063055   0.431597  -0.071469   0.009322  -0.001542   0.013405
     9  H    0.013405  -0.001542   0.009322  -0.071469   0.431597  -0.063054
    10  H   -0.066494   0.014529  -0.001212   0.012861  -0.064330   0.424932
    11  O    0.000076  -0.047424   0.220458   0.220458  -0.047424   0.000076
    12  H    0.001079  -0.000279  -0.012934   0.383126  -0.053373   0.010759
    13  H    0.010759  -0.053373   0.383126  -0.012934  -0.000279   0.001079
               7          8          9         10         11         12
     1  C    0.424932  -0.063055   0.013405  -0.066494   0.000076   0.001079
     2  C   -0.064330   0.431597  -0.001542   0.014529  -0.047424  -0.000279
     3  C    0.012861  -0.071469   0.009322  -0.001212   0.220458  -0.012934
     4  C   -0.001212   0.009322  -0.071469   0.012861   0.220458   0.383126
     5  C    0.014529  -0.001542   0.431597  -0.064330  -0.047424  -0.053373
     6  C   -0.066494   0.013405  -0.063054   0.424932   0.000076   0.010759
     7  H    0.695150  -0.014199  -0.000288  -0.012237  -0.000251   0.000011
     8  H   -0.014199   0.690924   0.000035  -0.000288   0.002148  -0.000050
     9  H   -0.000288   0.000035   0.690924  -0.014199   0.002148  -0.007026
    10  H   -0.012237  -0.000288  -0.014199   0.695150  -0.000251  -0.000364
    11  O   -0.000251   0.002148   0.002148  -0.000251   7.980477  -0.029957
    12  H    0.000011  -0.000050  -0.007026  -0.000364  -0.029957   0.680092
    13  H   -0.000364  -0.007026  -0.000050   0.000011  -0.029957  -0.003300
              13
     1  C    0.010759
     2  C   -0.053373
     3  C    0.383126
     4  C   -0.012934
     5  C   -0.000279
     6  C    0.001079
     7  H   -0.000364
     8  H   -0.007026
     9  H   -0.000050
    10  H    0.000011
    11  O   -0.029957
    12  H   -0.003300
    13  H    0.680092
 Mulliken charges:
               1
     1  C   -0.019504
     2  C    0.019394
     3  C    0.081091
     4  C    0.081092
     5  C    0.019393
     6  C   -0.019504
     7  H    0.011893
     8  H    0.010197
     9  H    0.010197
    10  H    0.011893
    11  O   -0.270576
    12  H    0.032217
    13  H    0.032217
 Sum of Mulliken charges =   0.00000
 Mulliken charges with hydrogens summed into heavy atoms:
               1
     1  C   -0.007611
     2  C    0.029591
     3  C    0.113308
     4  C    0.113309
     5  C    0.029590
     6  C   -0.007611
    11  O   -0.270576
 Electronic spatial extent (au):  <R**2>=            584.9943
 Charge=              0.0000 electrons
 Dipole moment (field-independent basis, Debye):
    X=             -0.7120    Y=              0.0000    Z=             -1.5960  Tot=              1.7476
 Quadrupole moment (field-independent basis, Debye-Ang):
   XX=            -38.6781   YY=            -36.2556   ZZ=            -44.0905
   XY=              0.0000   XZ=             -3.5158   YZ=              0.0000
 Traceless Quadrupole moment (field-independent basis, Debye-Ang):
   XX=              0.9966   YY=              3.4191   ZZ=             -4.4158
   XY=              0.0000   XZ=             -3.5158   YZ=              0.0000
 Octapole moment (field-independent basis, Debye-Ang**2):
  XXX=             -0.8271  YYY=              0.0000  ZZZ=              2.5301  XYY=              2.3244
  XXY=              0.0000  XXZ=             -1.7948  XZZ=              3.2478  YZZ=              0.0000
  YYZ=             -1.8501  XYZ=              0.0000
 Hexadecapole moment (field-independent basis, Debye-Ang**3):
 XXXX=           -360.7947 YYYY=           -295.6704 ZZZZ=            -84.2018 XXXY=              0.0000
 XXXZ=             -9.0159 YYYX=              0.0000 YYYZ=             -0.0001 ZZZX=              2.7315
 ZZZY=              0.0000 XXYY=           -107.7546 XXZZ=            -80.8539 YYZZ=            -69.3310
 XXYZ=              0.0000 YYXZ=             -0.7431 ZZXY=              0.0000
 N-N= 2.786070844872D+02 E-N=-1.270806086398D+03  KE= 3.037802349415D+02
 1\1\GINC-QC0019\FOpt\RBP86\SVP\C6H6O1\ELIOT\05-Oct-2018\0\\# opt bp86/
 SVP\\benzox.log\\0,1\C,1.4452283661,-0.7257094302,0.1359743513\C,0.322
 8364295,-1.4410044137,-0.1888933632\C,-0.9802107797,-0.7693852898,-0.3
 111843517\C,-0.9799317334,0.7697064832,-0.3111845665\C,0.3233618897,1.
 4408482914,-0.1888876522\C,1.4454919961,0.7251420671,0.1359790189\H,2.
 4052590524,-1.2480789471,0.2792819346\H,0.3809317219,-2.5223547506,-0.
 3929054756\H,0.3818550986,2.5221790882,-0.3928904877\H,2.4057117171,1.
 2471620779,0.2792939011\O,-1.4307236306,0.0002434352,0.8113734102\H,-1
 .7926073068,1.2979275095,-0.8471746123\H,-1.7930828209,-1.2973061212,-
 0.8471721068\\Version=ES64L-G09RevE.01\State=1-A\HF=-307.175004\RMSD=4
 .639e-09\RMSF=2.356e-05\Dipole=0.2809283,-0.0000499,-0.6275617\Quadrup
 ole=0.7343245,2.5420443,-3.2763688,0.0003251,2.6190107,-0.0004645\PG=C
 01 [X(C6H6O1)]\\@


 UNLESS WE CHANGE DIRECTIONS, WE WILL WIND UP WHERE WE ARE HEADED.
     -- CONFUCIUS
 Job cpu time:       0 days  0 hours  3 minutes  1.2 seconds.
 File lengths (MBytes):  RWF=     13 Int=      0 D2E=      0 Chk=      2 Scr=      1
 Normal termination of Gaussian 09 at Fri Oct  5 10:14:05 2018.
