 Entering Gaussian System, Link 0=/home/eliot/software/g09E01/g09
 Initial command:
 /home/eliot/software/g09E01/l1.exe "/tmp/Gau-22205.inp" -scrdir="/tmp/"
 Entering Link 1 = /home/eliot/software/g09E01/l1.exe PID=     22207.
  
 Copyright (c) 1988,1990,1992,1993,1995,1998,2003,2009,2015,
            Gaussian, Inc.  All Rights Reserved.
  
 This is part of the Gaussian(R) 09 program.  It is based on
 the Gaussian(R) 03 system (copyright 2003, Gaussian, Inc.),
 the Gaussian(R) 98 system (copyright 1998, Gaussian, Inc.),
 the Gaussian(R) 94 system (copyright 1995, Gaussian, Inc.),
 the Gaussian 92(TM) system (copyright 1992, Gaussian, Inc.),
 the Gaussian 90(TM) system (copyright 1990, Gaussian, Inc.),
 the Gaussian 88(TM) system (copyright 1988, Gaussian, Inc.),
 the Gaussian 86(TM) system (copyright 1986, Carnegie Mellon
 University), and the Gaussian 82(TM) system (copyright 1983,
 Carnegie Mellon University). Gaussian is a federally registered
 trademark of Gaussian, Inc.
  
 This software contains proprietary and confidential information,
 including trade secrets, belonging to Gaussian, Inc.
  
 This software is provided under written license and may be
 used, copied, transmitted, or stored only in accord with that
 written license.
  
 The following legend is applicable only to US Government
 contracts under FAR:
  
                    RESTRICTED RIGHTS LEGEND
  
 Use, reproduction and disclosure by the US Government is
 subject to restrictions as set forth in subparagraphs (a)
 and (c) of the Commercial Computer Software - Restricted
 Rights clause in FAR 52.227-19.
  
 Gaussian, Inc.
 340 Quinnipiac St., Bldg. 40, Wallingford CT 06492
  
  
 ---------------------------------------------------------------
 Warning -- This program may not be used in any manner that
 competes with the business of Gaussian, Inc. or will provide
 assistance to any competitor of Gaussian, Inc.  The licensee
 of this program is prohibited from giving any competitor of
 Gaussian, Inc. access to this program.  By using this program,
 the user acknowledges that Gaussian, Inc. is engaged in the
 business of creating and licensing software in the field of
 computational chemistry and represents and warrants to the
 licensee that it is not a competitor of Gaussian, Inc. and that
 it will not use this program in any manner prohibited above.
 ---------------------------------------------------------------
  

 Cite this work as:
 Gaussian 09, Revision E.01,
 M. J. Frisch, G. W. Trucks, H. B. Schlegel, G. E. Scuseria, 
 M. A. Robb, J. R. Cheeseman, G. Scalmani, V. Barone, B. Mennucci, 
 G. A. Petersson, H. Nakatsuji, M. Caricato, X. Li, H. P. Hratchian, 
 A. F. Izmaylov, J. Bloino, G. Zheng, J. L. Sonnenberg, M. Hada, 
 M. Ehara, K. Toyota, R. Fukuda, J. Hasegawa, M. Ishida, T. Nakajima, 
 Y. Honda, O. Kitao, H. Nakai, T. Vreven, J. A. Montgomery, Jr., 
 J. E. Peralta, F. Ogliaro, M. Bearpark, J. J. Heyd, E. Brothers, 
 K. N. Kudin, V. N. Staroverov, T. Keith, R. Kobayashi, J. Normand, 
 K. Raghavachari, A. Rendell, J. C. Burant, S. S. Iyengar, J. Tomasi, 
 M. Cossi, N. Rega, J. M. Millam, M. Klene, J. E. Knox, J. B. Cross, 
 V. Bakken, C. Adamo, J. Jaramillo, R. Gomperts, R. E. Stratmann, 
 O. Yazyev, A. J. Austin, R. Cammi, C. Pomelli, J. W. Ochterski, 
 R. L. Martin, K. Morokuma, V. G. Zakrzewski, G. A. Voth, 
 P. Salvador, J. J. Dannenberg, S. Dapprich, A. D. Daniels, 
 O. Farkas, J. B. Foresman, J. V. Ortiz, J. Cioslowski, 
 and D. J. Fox, Gaussian, Inc., Wallingford CT, 2013.
 
 ******************************************
 Gaussian 09:  ES64L-G09RevE.01 30-Nov-2015
                 4-Oct-2018 
 ******************************************
 %nproc=4
 Will use up to    4 processors via shared memory.
 ---------------
 # b3lyp/svp opt
 ---------------
 1/14=-1,18=20,19=15,26=3,38=1/1,3;
 2/9=110,12=2,17=6,18=5,40=1/2;
 3/5=18,7=101,11=2,16=1,25=1,30=1,71=1,74=-5/1,2,3;
 4//1;
 5/5=2,38=5/2;
 6/7=2,8=2,9=2,10=2,28=1/1;
 7//1,2,3,16;
 1/14=-1,18=20,19=15,26=3/3(2);
 2/9=110/2;
 99//99;
 2/9=110/2;
 3/5=18,7=101,11=2,16=1,25=1,30=1,71=1,74=-5/1,2,3;
 4/5=5,16=3,69=1/1;
 5/5=2,38=5/2;
 7//1,2,3,16;
 1/14=-1,18=20,19=15,26=3/3(-5);
 2/9=110/2;
 6/7=2,8=2,9=2,10=2,19=2,28=1/1;
 99/9=1/99;
 -------------------
 Title Card Required
 -------------------
 Symbolic Z-matrix:
 Charge =  0 Multiplicity = 1
 C                     0.0846    0.09851  -0.2183 
 C                     0.03519  -0.15879   1.11543 
 C                     1.23178   0.22646   1.9934 
 C                     2.32888   0.95442   1.44767 
 C                     2.40224   1.11706  -0.0787 
 C                     1.33486   0.76513  -0.84806 
 H                    -0.74642  -0.16272  -0.83965 
 H                    -0.82836  -0.61993   1.54732 
 H                     3.29016   1.50122  -0.53578 
 H                     1.36206   0.94533  -1.90243 
 O                     2.58046  -0.47978   1.94926 
 H                     2.73519   1.82053   1.92691 
 H                     0.87563   0.47004   2.97254 
 

 GradGradGradGradGradGradGradGradGradGradGradGradGradGradGradGradGradGrad
 Berny optimization.
 Initialization pass.
                           ----------------------------
                           !    Initial Parameters    !
                           ! (Angstroms and Degrees)  !
 --------------------------                            --------------------------
 ! Name  Definition              Value          Derivative Info.                !
 --------------------------------------------------------------------------------
 ! R1    R(1,2)                  1.3592         estimate D2E/DX2                !
 ! R2    R(1,6)                  1.5505         estimate D2E/DX2                !
 ! R3    R(1,7)                  1.07           estimate D2E/DX2                !
 ! R4    R(2,3)                  1.5333         estimate D2E/DX2                !
 ! R5    R(2,8)                  1.07           estimate D2E/DX2                !
 ! R6    R(3,4)                  1.4253         estimate D2E/DX2                !
 ! R7    R(3,11)                 1.523          estimate D2E/DX2                !
 ! R8    R(3,13)                 1.07           estimate D2E/DX2                !
 ! R9    R(4,5)                  1.5368         estimate D2E/DX2                !
 ! R10   R(4,11)                 1.5401         estimate D2E/DX2                !
 ! R11   R(4,12)                 1.07           estimate D2E/DX2                !
 ! R12   R(5,6)                  1.362          estimate D2E/DX2                !
 ! R13   R(5,9)                  1.07           estimate D2E/DX2                !
 ! R14   R(6,10)                 1.07           estimate D2E/DX2                !
 ! A1    A(2,1,6)              120.6126         estimate D2E/DX2                !
 ! A2    A(2,1,7)              119.6936         estimate D2E/DX2                !
 ! A3    A(6,1,7)              119.6937         estimate D2E/DX2                !
 ! A4    A(1,2,3)              119.0733         estimate D2E/DX2                !
 ! A5    A(1,2,8)              120.4625         estimate D2E/DX2                !
 ! A6    A(3,2,8)              120.4637         estimate D2E/DX2                !
 ! A7    A(2,3,4)              120.6501         estimate D2E/DX2                !
 ! A8    A(2,3,11)             123.9144         estimate D2E/DX2                !
 ! A9    A(2,3,13)             108.7484         estimate D2E/DX2                !
 ! A10   A(4,3,13)             119.3619         estimate D2E/DX2                !
 ! A11   A(11,3,13)            115.2661         estimate D2E/DX2                !
 ! A12   A(3,4,5)              118.1061         estimate D2E/DX2                !
 ! A13   A(3,4,12)             122.2922         estimate D2E/DX2                !
 ! A14   A(5,4,11)             114.4721         estimate D2E/DX2                !
 ! A15   A(5,4,12)             109.9417         estimate D2E/DX2                !
 ! A16   A(11,4,12)            123.086          estimate D2E/DX2                !
 ! A17   A(4,5,6)              119.7552         estimate D2E/DX2                !
 ! A18   A(4,5,9)              120.1255         estimate D2E/DX2                !
 ! A19   A(6,5,9)              120.1187         estimate D2E/DX2                !
 ! A20   A(1,6,5)              120.9028         estimate D2E/DX2                !
 ! A21   A(1,6,10)             119.5458         estimate D2E/DX2                !
 ! A22   A(5,6,10)             119.5502         estimate D2E/DX2                !
 ! D1    D(6,1,2,3)              0.3286         estimate D2E/DX2                !
 ! D2    D(6,1,2,8)           -179.9299         estimate D2E/DX2                !
 ! D3    D(7,1,2,3)           -179.7621         estimate D2E/DX2                !
 ! D4    D(7,1,2,8)             -0.0206         estimate D2E/DX2                !
 ! D5    D(2,1,6,5)             -0.5947         estimate D2E/DX2                !
 ! D6    D(2,1,6,10)           179.004          estimate D2E/DX2                !
 ! D7    D(7,1,6,5)            179.496          estimate D2E/DX2                !
 ! D8    D(7,1,6,10)            -0.9053         estimate D2E/DX2                !
 ! D9    D(1,2,3,4)              5.7609         estimate D2E/DX2                !
 ! D10   D(1,2,3,11)           -70.3444         estimate D2E/DX2                !
 ! D11   D(1,2,3,13)           149.1803         estimate D2E/DX2                !
 ! D12   D(8,2,3,4)           -173.9807         estimate D2E/DX2                !
 ! D13   D(8,2,3,11)           109.9141         estimate D2E/DX2                !
 ! D14   D(8,2,3,13)           -30.5612         estimate D2E/DX2                !
 ! D15   D(2,3,4,5)            -10.9456         estimate D2E/DX2                !
 ! D16   D(2,3,4,12)           131.7039         estimate D2E/DX2                !
 ! D17   D(13,3,4,5)          -150.5915         estimate D2E/DX2                !
 ! D18   D(13,3,4,12)           -7.9421         estimate D2E/DX2                !
 ! D19   D(3,4,5,6)             10.59           estimate D2E/DX2                !
 ! D20   D(3,4,5,9)           -169.1353         estimate D2E/DX2                !
 ! D21   D(11,4,5,6)            80.2199         estimate D2E/DX2                !
 ! D22   D(11,4,5,9)           -99.5054         estimate D2E/DX2                !
 ! D23   D(12,4,5,6)          -136.3465         estimate D2E/DX2                !
 ! D24   D(12,4,5,9)            43.9282         estimate D2E/DX2                !
 ! D25   D(4,5,6,1)             -4.8068         estimate D2E/DX2                !
 ! D26   D(4,5,6,10)           175.5945         estimate D2E/DX2                !
 ! D27   D(9,5,6,1)            174.9185         estimate D2E/DX2                !
 ! D28   D(9,5,6,10)            -4.6802         estimate D2E/DX2                !
 --------------------------------------------------------------------------------
 Trust Radius=3.00D-01 FncErr=1.00D-07 GrdErr=1.00D-06
 Number of steps in this run=     74 maximum allowed number of steps=    100.
 GradGradGradGradGradGradGradGradGradGradGradGradGradGradGradGradGradGrad

                          Input orientation:                          
 ---------------------------------------------------------------------
 Center     Atomic      Atomic             Coordinates (Angstroms)
 Number     Number       Type             X           Y           Z
 ---------------------------------------------------------------------
      1          6           0        0.084598    0.098505   -0.218304
      2          6           0        0.035194   -0.158790    1.115435
      3          6           0        1.231778    0.226457    1.993396
      4          6           0        2.328875    0.954422    1.447671
      5          6           0        2.402236    1.117060   -0.078703
      6          6           0        1.334865    0.765131   -0.848059
      7          1           0       -0.746425   -0.162716   -0.839646
      8          1           0       -0.828360   -0.619933    1.547317
      9          1           0        3.290158    1.501218   -0.535780
     10          1           0        1.362060    0.945329   -1.902426
     11          8           0        2.580458   -0.479777    1.949263
     12          1           0        2.735187    1.820530    1.926907
     13          1           0        0.875626    0.470039    2.972541
 ---------------------------------------------------------------------
                    Distance matrix (angstroms):
                    1          2          3          4          5
     1  C    0.000000
     2  C    1.359228   0.000000
     3  C    2.494797   1.533311   0.000000
     4  C    2.923157   2.571108   1.425262   0.000000
     5  C    2.535428   2.942218   2.541012   1.536766   0.000000
     6  C    1.550532   2.529443   2.893901   2.508837   1.362000
     7  H    1.070000   2.105537   3.477193   3.992153   3.482948
     8  H    2.113542   1.070000   2.271460   3.529399   4.012211
     9  H    3.513404   4.009604   3.501239   2.270931   1.070000
    10  H    2.277123   3.476656   3.963733   3.486827   2.106519
    11  O    3.355902   2.697530   1.523041   1.540070   2.587334
    12  H    3.820069   3.444729   2.192198   1.070000   2.151325
    13  H    3.308361   2.133212   1.070000   2.161432   3.472646
                    6          7          8          9         10
     6  C    0.000000
     7  H    2.278758   0.000000
     8  H    3.512231   2.431739   0.000000
     9  H    2.112466   4.376643   5.079445   0.000000
    10  H    1.070000   2.608251   4.375924   2.427817   0.000000
    11  O    3.305497   4.352780   3.435294   3.256294   4.283798
    12  H    3.282561   4.869158   4.335760   2.544559   4.161159
    13  H    3.859399   4.190966   2.474443   4.381964   4.922176
                   11         12         13
    11  O    0.000000
    12  H    2.305613   0.000000
    13  H    2.203565   2.524905   0.000000
 Stoichiometry    C6H6O
 Framework group  C1[X(C6H6O)]
 Deg. of freedom    33
 Full point group                 C1      NOp   1
 Largest Abelian subgroup         C1      NOp   1
 Largest concise Abelian subgroup C1      NOp   1
                         Standard orientation:                         
 ---------------------------------------------------------------------
 Center     Atomic      Atomic             Coordinates (Angstroms)
 Number     Number       Type             X           Y           Z
 ---------------------------------------------------------------------
      1          6           0        1.552980   -0.694500    0.099406
      2          6           0        0.447716   -1.461645   -0.093939
      3          6           0       -0.905905   -0.775979   -0.314425
      4          6           0       -0.990719    0.641270   -0.439261
      5          6           0        0.253919    1.474184   -0.094617
      6          6           0        1.449185    0.852543    0.105252
      7          1           0        2.503257   -1.162549    0.250413
      8          1           0        0.521919   -2.529066   -0.096402
      9          1           0        0.180909    2.538141   -0.007645
     10          1           0        2.327478    1.439656    0.274959
     11          8           0       -1.666387   -0.027505    0.772362
     12          1           0       -1.539519    1.113919   -1.226865
     13          1           0       -1.506006   -1.395298   -0.947847
 ---------------------------------------------------------------------
 Rotational constants (GHZ):      4.4374831      3.2374832      2.1215138
 Standard basis: SVP (5D, 7F)
 There are   135 symmetry adapted cartesian basis functions of A   symmetry.
 There are   128 symmetry adapted basis functions of A   symmetry.
   128 basis functions,   217 primitive gaussians,   135 cartesian basis functions
    25 alpha electrons       25 beta electrons
       nuclear repulsion energy       272.6167873366 Hartrees.
 NAtoms=   13 NActive=   13 NUniq=   13 SFac= 1.00D+00 NAtFMM=   60 NAOKFM=F Big=F
 Integral buffers will be    131072 words long.
 Raffenetti 2 integral format.
 Two-electron integral symmetry is turned on.
 One-electron integrals computed using PRISM.
 NBasis=   128 RedAO= T EigKep=  4.22D-04  NBF=   128
 NBsUse=   128 1.00D-06 EigRej= -1.00D+00 NBFU=   128
 ExpMin= 1.22D-01 ExpMax= 2.27D+03 ExpMxC= 3.41D+02 IAcc=1 IRadAn=         1 AccDes= 0.00D+00
 Harris functional with IExCor=  402 and IRadAn=       1 diagonalized for initial guess.
 HarFok:  IExCor=  402 AccDes= 0.00D+00 IRadAn=         1 IDoV= 1 UseB2=F ITyADJ=14
 ICtDFT=  3500011 ScaDFX=  1.000000  1.000000  1.000000  1.000000
 FoFCou: FMM=F IPFlag=           0 FMFlag=      100000 FMFlg1=           0
         NFxFlg=           0 DoJE=T BraDBF=F KetDBF=T FulRan=T
         wScrn=  0.000000 ICntrl=     500 IOpCl=  0 I1Cent=   200000004 NGrid=           0
         NMat0=    1 NMatS0=      1 NMatT0=    0 NMatD0=    1 NMtDS0=    0 NMtDT0=    0
 Petite list used in FoFCou.
 Requested convergence on RMS density matrix=1.00D-08 within 128 cycles.
 Requested convergence on MAX density matrix=1.00D-06.
 Requested convergence on             energy=1.00D-06.
 No special actions if energy rises.
 Integral accuracy reduced to 1.0D-05 until final iterations.
 Initial convergence to 1.0D-05 achieved.  Increase integral accuracy.
 SCF Done:  E(RB3LYP) =  -307.141526534     A.U. after   14 cycles
            NFock= 14  Conv=0.53D-08     -V/T= 2.0111

 **********************************************************************

            Population analysis using the SCF density.

 **********************************************************************

 Orbital symmetries:
       Occupied  (A) (A) (A) (A) (A) (A) (A) (A) (A) (A) (A) (A)
                 (A) (A) (A) (A) (A) (A) (A) (A) (A) (A) (A) (A)
                 (A)
       Virtual   (A) (A) (A) (A) (A) (A) (A) (A) (A) (A) (A) (A)
                 (A) (A) (A) (A) (A) (A) (A) (A) (A) (A) (A) (A)
                 (A) (A) (A) (A) (A) (A) (A) (A) (A) (A) (A) (A)
                 (A) (A) (A) (A) (A) (A) (A) (A) (A) (A) (A) (A)
                 (A) (A) (A) (A) (A) (A) (A) (A) (A) (A) (A) (A)
                 (A) (A) (A) (A) (A) (A) (A) (A) (A) (A) (A) (A)
                 (A) (A) (A) (A) (A) (A) (A) (A) (A) (A) (A) (A)
                 (A) (A) (A) (A) (A) (A) (A) (A) (A) (A) (A) (A)
                 (A) (A) (A) (A) (A) (A) (A)
 The electronic state is 1-A.
 Alpha  occ. eigenvalues --  -19.14341 -10.24662 -10.24477 -10.21041 -10.20948
 Alpha  occ. eigenvalues --  -10.20313 -10.20276  -1.01363  -0.81298  -0.74859
 Alpha  occ. eigenvalues --   -0.69825  -0.62244  -0.59809  -0.53196  -0.49116
 Alpha  occ. eigenvalues --   -0.47730  -0.45070  -0.43792  -0.38529  -0.37863
 Alpha  occ. eigenvalues --   -0.35299  -0.34610  -0.30448  -0.26873  -0.24171
 Alpha virt. eigenvalues --   -0.05976   0.02844   0.05990   0.09020   0.09363
 Alpha virt. eigenvalues --    0.10774   0.11996   0.12769   0.13787   0.15045
 Alpha virt. eigenvalues --    0.21245   0.22147   0.28932   0.29981   0.37054
 Alpha virt. eigenvalues --    0.38278   0.39625   0.42853   0.44987   0.45999
 Alpha virt. eigenvalues --    0.47698   0.48736   0.50111   0.52017   0.53537
 Alpha virt. eigenvalues --    0.54423   0.56410   0.58587   0.61965   0.63628
 Alpha virt. eigenvalues --    0.64137   0.66074   0.66399   0.66767   0.69006
 Alpha virt. eigenvalues --    0.69813   0.71618   0.75144   0.78465   0.80339
 Alpha virt. eigenvalues --    0.83465   0.85960   0.89052   0.96901   0.99594
 Alpha virt. eigenvalues --    1.12923   1.14292   1.20877   1.24623   1.26570
 Alpha virt. eigenvalues --    1.27518   1.32826   1.36655   1.44315   1.52539
 Alpha virt. eigenvalues --    1.56663   1.59561   1.64022   1.66054   1.67895
 Alpha virt. eigenvalues --    1.68888   1.72362   1.73328   1.75508   1.77239
 Alpha virt. eigenvalues --    1.78811   1.81339   1.91279   1.92839   1.93876
 Alpha virt. eigenvalues --    1.94170   1.97379   1.98915   2.01219   2.03552
 Alpha virt. eigenvalues --    2.07937   2.10365   2.11784   2.19601   2.21012
 Alpha virt. eigenvalues --    2.27507   2.29486   2.34541   2.36905   2.45274
 Alpha virt. eigenvalues --    2.48084   2.51451   2.54031   2.71476   2.74569
 Alpha virt. eigenvalues --    2.75991   2.77741   2.78138   2.79687   2.80574
 Alpha virt. eigenvalues --    2.85728   2.96676   3.05321   3.07267   3.13664
 Alpha virt. eigenvalues --    3.25820   3.28755   3.45317
          Condensed to atoms (all electrons):
               1          2          3          4          5          6
     1  C    4.999298   0.438021   0.059464  -0.093832   0.032121   0.223261
     2  C    0.438021   5.024900   0.208818   0.055285  -0.071707   0.040025
     3  C    0.059464   0.208818   4.990930   0.074255   0.026295  -0.088487
     4  C   -0.093832   0.055285   0.074255   5.050300   0.272612   0.043819
     5  C    0.032121  -0.071707   0.026295   0.272612   4.898439   0.493156
     6  C    0.223261   0.040025  -0.088487   0.043819   0.493156   4.955917
     7  H    0.427029  -0.060872   0.012375  -0.000971   0.011621  -0.064524
     8  H   -0.061477   0.434512  -0.065833   0.010453  -0.000947   0.011460
     9  H    0.011471  -0.001015   0.010570  -0.069130   0.431319  -0.053970
    10  H   -0.067725   0.012922  -0.001688   0.013457  -0.063678   0.430897
    11  O    0.004372  -0.034746   0.213758   0.170961  -0.015624  -0.005934
    12  H    0.002398  -0.001211  -0.007436   0.353841  -0.035967   0.005718
    13  H    0.010217  -0.054301   0.379712  -0.021724   0.003539   0.000912
               7          8          9         10         11         12
     1  C    0.427029  -0.061477   0.011471  -0.067725   0.004372   0.002398
     2  C   -0.060872   0.434512  -0.001015   0.012922  -0.034746  -0.001211
     3  C    0.012375  -0.065833   0.010570  -0.001688   0.213758  -0.007436
     4  C   -0.000971   0.010453  -0.069130   0.013457   0.170961   0.353841
     5  C    0.011621  -0.000947   0.431319  -0.063678  -0.015624  -0.035967
     6  C   -0.064524   0.011460  -0.053970   0.430897  -0.005934   0.005718
     7  H    0.710453  -0.015641  -0.000201  -0.008172  -0.000167   0.000001
     8  H   -0.015641   0.705584   0.000027  -0.000204   0.000547  -0.000205
     9  H   -0.000201   0.000027   0.698552  -0.016002   0.000607  -0.004982
    10  H   -0.008172  -0.000204  -0.016002   0.711497  -0.000275  -0.000508
    11  O   -0.000167   0.000547   0.000607  -0.000275   8.067441  -0.014078
    12  H    0.000001  -0.000205  -0.004982  -0.000508  -0.014078   0.690570
    13  H   -0.000506  -0.006903  -0.000249  -0.000002  -0.022489  -0.005851
              13
     1  C    0.010217
     2  C   -0.054301
     3  C    0.379712
     4  C   -0.021724
     5  C    0.003539
     6  C    0.000912
     7  H   -0.000506
     8  H   -0.006903
     9  H   -0.000249
    10  H   -0.000002
    11  O   -0.022489
    12  H   -0.005851
    13  H    0.710933
 Mulliken charges:
               1
     1  C    0.015381
     2  C    0.009370
     3  C    0.187267
     4  C    0.140674
     5  C    0.018822
     6  C    0.007749
     7  H   -0.010425
     8  H   -0.011372
     9  H   -0.006997
    10  H   -0.010518
    11  O   -0.364374
    12  H    0.017710
    13  H    0.006713
 Sum of Mulliken charges =   0.00000
 Mulliken charges with hydrogens summed into heavy atoms:
               1
     1  C    0.004956
     2  C   -0.002002
     3  C    0.193980
     4  C    0.158384
     5  C    0.011824
     6  C   -0.002768
    11  O   -0.364374
 Electronic spatial extent (au):  <R**2>=            611.5779
 Charge=              0.0000 electrons
 Dipole moment (field-independent basis, Debye):
    X=              1.6190    Y=             -0.0013    Z=             -1.8883  Tot=              2.4874
 Quadrupole moment (field-independent basis, Debye-Ang):
   XX=            -40.9880   YY=            -35.6430   ZZ=            -43.3899
   XY=             -0.1275   XZ=              4.4191   YZ=              0.1006
 Traceless Quadrupole moment (field-independent basis, Debye-Ang):
   XX=             -0.9810   YY=              4.3639   ZZ=             -3.3829
   XY=             -0.1275   XZ=              4.4191   YZ=              0.1006
 Octapole moment (field-independent basis, Debye-Ang**2):
  XXX=              7.1769  YYY=             -0.3302  ZZZ=              0.4788  XYY=             -2.1433
  XXY=              0.0434  XXZ=             -2.9514  XZZ=             -4.2586  YZZ=              0.1778
  YYZ=              0.1970  XYZ=              0.3232
 Hexadecapole moment (field-independent basis, Debye-Ang**3):
 XXXX=           -398.7027 YYYY=           -294.2003 ZZZZ=            -83.6244 XXXY=             -0.1849
 XXXZ=             10.3786 YYYX=             -0.3756 YYYZ=              2.0373 ZZZX=             -0.7593
 ZZZY=             -0.7760 XXYY=           -113.0761 XXZZ=            -84.7887 YYZZ=            -70.6812
 XXYZ=              0.0538 YYXZ=              2.4863 ZZXY=             -0.3019
 N-N= 2.726167873366D+02 E-N=-1.258910524574D+03  KE= 3.037792377382D+02
 Calling FoFJK, ICntrl=      2127 FMM=F ISym2X=0 I1Cent= 0 IOpClX= 0 NMat=1 NMatS=1 NMatT=0.
 ***** Axes restored to original set *****
 -------------------------------------------------------------------
 Center     Atomic                   Forces (Hartrees/Bohr)
 Number     Number              X              Y              Z
 -------------------------------------------------------------------
      1        6           0.044406196    0.019330938    0.008649745
      2        6           0.043011925    0.009539242   -0.019979759
      3        6          -0.023744037   -0.031079130   -0.013403003
      4        6           0.019094502   -0.025079253   -0.052683082
      5        6          -0.035477047   -0.018958688    0.019571231
      6        6          -0.017828515   -0.017560858    0.043082084
      7        1          -0.011500526   -0.001788570   -0.012787040
      8        1          -0.011720325   -0.006002712    0.009852963
      9        1           0.013371845    0.010768244   -0.003797263
     10        1          -0.002037029   -0.000777783   -0.017120772
     11        8          -0.037644066    0.054641355   -0.006904740
     12        1           0.016439906    0.005393083    0.022010551
     13        1           0.003627173    0.001574132    0.023509085
 -------------------------------------------------------------------
 Cartesian Forces:  Max     0.054641355 RMS     0.023589161

 GradGradGradGradGradGradGradGradGradGradGradGradGradGradGradGradGradGrad
 Berny optimization.
 FormGI is forming the generalized inverse of G from B-inverse, IUseBI=4.
 Internal  Forces:  Max     0.041955497 RMS     0.012281023
 Search for a local minimum.
 Step number   1 out of a maximum of   74
 All quantities printed in internal units (Hartrees-Bohrs-Radians)
 Mixed Optimization -- RFO/linear search
 Second derivative matrix not updated -- first step.
 ITU=  0
     Eigenvalues ---    0.00749   0.00790   0.01229   0.01365   0.01402
     Eigenvalues ---    0.01887   0.02851   0.03348   0.03631   0.12926
     Eigenvalues ---    0.13472   0.14252   0.16000   0.16000   0.16000
     Eigenvalues ---    0.16000   0.17447   0.21772   0.21993   0.24510
     Eigenvalues ---    0.26938   0.28229   0.28411   0.28850   0.36737
     Eigenvalues ---    0.37230   0.37230   0.37230   0.37230   0.37230
     Eigenvalues ---    0.37230   0.50297   0.52082
 RFO step:  Lambda=-3.38710317D-02 EMin= 7.48778531D-03
 Linear search not attempted -- first point.
 Maximum step size (   0.300) exceeded in Quadratic search.
    -- Step size scaled by   0.952
 Iteration  1 RMS(Cart)=  0.04311257 RMS(Int)=  0.00158078
 Iteration  2 RMS(Cart)=  0.00150553 RMS(Int)=  0.00046853
 Iteration  3 RMS(Cart)=  0.00000224 RMS(Int)=  0.00046852
 Iteration  4 RMS(Cart)=  0.00000000 RMS(Int)=  0.00046852
 Variable       Old X    -DE/DX   Delta X   Delta X   Delta X     New X
                                 (Linear)    (Quad)   (Total)
    R1        2.56857  -0.01271   0.00000  -0.02283  -0.02274   2.54583
    R2        2.93008  -0.04196   0.00000  -0.13392  -0.13390   2.79618
    R3        2.02201   0.01679   0.00000   0.03938   0.03938   2.06139
    R4        2.89754  -0.02597   0.00000  -0.07368  -0.07362   2.82392
    R5        2.02201   0.01602   0.00000   0.03757   0.03757   2.05958
    R6        2.69336   0.01976   0.00000   0.06212   0.06167   2.75503
    R7        2.87813  -0.03400   0.00000  -0.10218  -0.10139   2.77674
    R8        2.02201   0.02066   0.00000   0.04845   0.04845   2.07046
    R9        2.90407  -0.02594   0.00000  -0.07457  -0.07466   2.82941
   R10        2.91031  -0.03412   0.00000  -0.11824  -0.11860   2.79171
   R11        2.02201   0.02047   0.00000   0.04799   0.04799   2.07000
   R12        2.57381  -0.01599   0.00000  -0.02865  -0.02872   2.54509
   R13        2.02201   0.01658   0.00000   0.03889   0.03889   2.06090
   R14        2.02201   0.01669   0.00000   0.03913   0.03913   2.06114
    A1        2.10509   0.00376   0.00000   0.00893   0.00908   2.11417
    A2        2.08905   0.00216   0.00000   0.01536   0.01527   2.10432
    A3        2.08905  -0.00592   0.00000  -0.02430  -0.02440   2.06465
    A4        2.07822   0.00299   0.00000   0.01493   0.01512   2.09334
    A5        2.10247   0.00217   0.00000   0.01046   0.01035   2.11281
    A6        2.10249  -0.00516   0.00000  -0.02544  -0.02557   2.07692
    A7        2.10574  -0.00786   0.00000  -0.02551  -0.02638   2.07937
    A8        2.16271   0.00514   0.00000  -0.02443  -0.02424   2.13847
    A9        1.89802   0.01155   0.00000   0.07054   0.06989   1.96791
   A10        2.08326   0.00009   0.00000   0.00616   0.00475   2.08801
   A11        2.01177  -0.00826   0.00000  -0.04189  -0.04151   1.97026
   A12        2.06134  -0.00533   0.00000  -0.01416  -0.01448   2.04686
   A13        2.13440  -0.00220   0.00000  -0.00196  -0.00318   2.13122
   A14        1.99791   0.00815   0.00000   0.01070   0.01149   2.00941
   A15        1.91884   0.01025   0.00000   0.05727   0.05670   1.97554
   A16        2.14826  -0.01016   0.00000  -0.07141  -0.07136   2.07689
   A17        2.09012   0.00283   0.00000   0.01295   0.01294   2.10307
   A18        2.09659  -0.00465   0.00000  -0.02242  -0.02242   2.07417
   A19        2.09647   0.00182   0.00000   0.00946   0.00946   2.10592
   A20        2.11015   0.00381   0.00000   0.00888   0.00889   2.11904
   A21        2.08647  -0.00570   0.00000  -0.02301  -0.02303   2.06343
   A22        2.08654   0.00187   0.00000   0.01406   0.01402   2.10057
    D1        0.00573   0.00382   0.00000   0.02243   0.02328   0.02901
    D2       -3.14037   0.00328   0.00000   0.01115   0.01165  -3.12872
    D3       -3.13744   0.00142   0.00000   0.01382   0.01435  -3.12309
    D4       -0.00036   0.00088   0.00000   0.00254   0.00273   0.00237
    D5       -0.01038  -0.00085   0.00000  -0.01229  -0.01188  -0.02226
    D6        3.12421  -0.00338   0.00000  -0.02329  -0.02321   3.10100
    D7        3.13280   0.00155   0.00000  -0.00372  -0.00319   3.12961
    D8       -0.01580  -0.00099   0.00000  -0.01471  -0.01452  -0.03032
    D9        0.10055  -0.00574   0.00000  -0.04171  -0.04183   0.05871
   D10       -1.22774   0.00939   0.00000   0.03171   0.03162  -1.19612
   D11        2.60369   0.00044   0.00000   0.03686   0.03742   2.64111
   D12       -3.03654  -0.00522   0.00000  -0.03053  -0.03054  -3.06708
   D13        1.91836   0.00991   0.00000   0.04288   0.04291   1.96127
   D14       -0.53339   0.00096   0.00000   0.04804   0.04871  -0.48468
   D15       -0.19104   0.00382   0.00000   0.04553   0.04498  -0.14605
   D16        2.29867   0.01207   0.00000   0.13652   0.13572   2.43439
   D17       -2.62832  -0.00655   0.00000  -0.06182  -0.06151  -2.68982
   D18       -0.13862   0.00171   0.00000   0.02916   0.02923  -0.10939
   D19        0.18483   0.00048   0.00000  -0.03024  -0.02970   0.15513
   D20       -2.95197   0.00065   0.00000  -0.02723  -0.02651  -2.97848
   D21        1.40010  -0.00933   0.00000  -0.06098  -0.06189   1.33821
   D22       -1.73670  -0.00916   0.00000  -0.05797  -0.05869  -1.79539
   D23       -2.37970  -0.00323   0.00000  -0.09351  -0.09425  -2.47394
   D24        0.76669  -0.00306   0.00000  -0.09050  -0.09105   0.67564
   D25       -0.08389  -0.00261   0.00000   0.01161   0.01130  -0.07259
   D26        3.06470  -0.00004   0.00000   0.02276   0.02302   3.08772
   D27        3.05290  -0.00280   0.00000   0.00851   0.00796   3.06086
   D28       -0.08169  -0.00023   0.00000   0.01966   0.01967  -0.06201
         Item               Value     Threshold  Converged?
 Maximum Force            0.041955     0.000450     NO 
 RMS     Force            0.012281     0.000300     NO 
 Maximum Displacement     0.150468     0.001800     NO 
 RMS     Displacement     0.043260     0.001200     NO 
 Predicted change in Energy=-1.950658D-02
 GradGradGradGradGradGradGradGradGradGradGradGradGradGradGradGradGradGrad

                          Input orientation:                          
 ---------------------------------------------------------------------
 Center     Atomic      Atomic             Coordinates (Angstroms)
 Number     Number       Type             X           Y           Z
 ---------------------------------------------------------------------
      1          6           0        0.121779    0.111090   -0.219408
      2          6           0        0.062455   -0.150618    1.100788
      3          6           0        1.199052    0.237633    1.989892
      4          6           0        2.328529    0.963797    1.422057
      5          6           0        2.370418    1.111634   -0.067294
      6          6           0        1.314494    0.748228   -0.820183
      7          1           0       -0.709279   -0.152294   -0.875076
      8          1           0       -0.811812   -0.630776    1.540047
      9          1           0        3.272947    1.511228   -0.531114
     10          1           0        1.327823    0.903354   -1.899720
     11          8           0        2.514167   -0.414181    1.921211
     12          1           0        2.814812    1.790351    1.951423
     13          1           0        0.880865    0.448032    3.016983
 ---------------------------------------------------------------------
                    Distance matrix (angstroms):
                    1          2          3          4          5
     1  C    0.000000
     2  C    1.347193   0.000000
     3  C    2.461207   1.494355   0.000000
     4  C    2.879456   2.545629   1.457899   0.000000
     5  C    2.465888   2.878262   2.523488   1.497257   0.000000
     6  C    1.479677   2.462855   2.858418   2.470299   1.346804
     7  H    1.090839   2.121230   3.464363   3.968723   3.425575
     8  H    2.125475   1.089882   2.236083   3.523965   3.968139
     9  H    3.462283   3.966370   3.504077   2.237517   1.090579
    10  H    2.214875   3.422727   3.948271   3.469765   2.118530
    11  O    3.252950   2.598740   1.469390   1.477307   2.510563
    12  H    3.845107   3.473673   2.241225   1.095395   2.175629
    13  H    3.341253   2.167943   1.095640   2.214844   3.488825
                    6          7          8          9         10
     6  C    0.000000
     7  H    2.215764   0.000000
     8  H    3.463166   2.464200   0.000000
     9  H    2.121619   4.329404   5.056001   0.000000
    10  H    1.090707   2.512782   4.331696   2.454812   0.000000
    11  O    3.210241   4.275326   3.354749   3.208869   4.212223
    12  H    3.319453   4.917538   4.379895   2.539840   4.222464
    13  H    3.873241   4.247008   2.492052   4.409244   4.957929
                   11         12         13
    11  O    0.000000
    12  H    2.225142   0.000000
    13  H    2.147511   2.584064   0.000000
 Stoichiometry    C6H6O
 Framework group  C1[X(C6H6O)]
 Deg. of freedom    33
 Full point group                 C1      NOp   1
 Largest Abelian subgroup         C1      NOp   1
 Largest concise Abelian subgroup C1      NOp   1
                         Standard orientation:                         
 ---------------------------------------------------------------------
 Center     Atomic      Atomic             Coordinates (Angstroms)
 Number     Number       Type             X           Y           Z
 ---------------------------------------------------------------------
      1          6           0        1.517124   -0.678045    0.077875
      2          6           0        0.414421   -1.433752   -0.089113
      3          6           0       -0.912048   -0.780169   -0.304531
      4          6           0       -0.979692    0.672733   -0.404382
      5          6           0        0.267224    1.440741   -0.092705
      6          6           0        1.437564    0.799451    0.088761
      7          1           0        2.493160   -1.144374    0.218657
      8          1           0        0.472757   -2.522064   -0.085026
      9          1           0        0.209018    2.526466   -0.007990
     10          1           0        2.353766    1.364092    0.265951
     11          8           0       -1.596592   -0.016303    0.747617
     12          1           0       -1.626783    1.176975   -1.130263
     13          1           0       -1.596741   -1.396427   -0.897698
 ---------------------------------------------------------------------
 Rotational constants (GHZ):      4.6226524      3.3807593      2.1976279
 Standard basis: SVP (5D, 7F)
 There are   135 symmetry adapted cartesian basis functions of A   symmetry.
 There are   128 symmetry adapted basis functions of A   symmetry.
   128 basis functions,   217 primitive gaussians,   135 cartesian basis functions
    25 alpha electrons       25 beta electrons
       nuclear repulsion energy       277.2236561012 Hartrees.
 NAtoms=   13 NActive=   13 NUniq=   13 SFac= 1.00D+00 NAtFMM=   60 NAOKFM=F Big=F
 Integral buffers will be    131072 words long.
 Raffenetti 2 integral format.
 Two-electron integral symmetry is turned on.
 One-electron integrals computed using PRISM.
 NBasis=   128 RedAO= T EigKep=  3.51D-04  NBF=   128
 NBsUse=   128 1.00D-06 EigRej= -1.00D+00 NBFU=   128
 Initial guess from the checkpoint file:  "/tmp/Gau-22207.chk"
 B after Tr=     0.000000    0.000000    0.000000
         Rot=    0.999956   -0.001686   -0.006843    0.006121 Ang=  -1.07 deg.
 ExpMin= 1.22D-01 ExpMax= 2.27D+03 ExpMxC= 3.41D+02 IAcc=1 IRadAn=         1 AccDes= 0.00D+00
 Harris functional with IExCor=  402 and IRadAn=       1 diagonalized for initial guess.
 HarFok:  IExCor=  402 AccDes= 0.00D+00 IRadAn=         1 IDoV= 1 UseB2=F ITyADJ=14
 ICtDFT=  3500011 ScaDFX=  1.000000  1.000000  1.000000  1.000000
 FoFCou: FMM=F IPFlag=           0 FMFlag=      100000 FMFlg1=           0
         NFxFlg=           0 DoJE=T BraDBF=F KetDBF=T FulRan=T
         wScrn=  0.000000 ICntrl=     500 IOpCl=  0 I1Cent=   200000004 NGrid=           0
         NMat0=    1 NMatS0=      1 NMatT0=    0 NMatD0=    1 NMtDS0=    0 NMtDT0=    0
 Petite list used in FoFCou.
 Requested convergence on RMS density matrix=1.00D-08 within 128 cycles.
 Requested convergence on MAX density matrix=1.00D-06.
 Requested convergence on             energy=1.00D-06.
 No special actions if energy rises.
 Integral accuracy reduced to 1.0D-05 until final iterations.
 Initial convergence to 1.0D-05 achieved.  Increase integral accuracy.
 SCF Done:  E(RB3LYP) =  -307.163506791     A.U. after   13 cycles
            NFock= 13  Conv=0.63D-08     -V/T= 2.0105
 Calling FoFJK, ICntrl=      2127 FMM=F ISym2X=0 I1Cent= 0 IOpClX= 0 NMat=1 NMatS=1 NMatT=0.
 ***** Axes restored to original set *****
 -------------------------------------------------------------------
 Center     Atomic                   Forces (Hartrees/Bohr)
 Number     Number              X              Y              Z
 -------------------------------------------------------------------
      1        6           0.009792406    0.004623906   -0.005483076
      2        6           0.010765288   -0.002253050   -0.000821158
      3        6          -0.008568624   -0.010472333    0.007901495
      4        6           0.012455804   -0.009467579   -0.017966166
      5        6          -0.002437673   -0.000680039    0.006718252
      6        6          -0.008925202   -0.008226598    0.004188702
      7        1          -0.001399879   -0.000130868   -0.001272655
      8        1          -0.002009823    0.001012769    0.002037403
      9        1           0.000224829    0.005663179    0.000443316
     10        1           0.000431818   -0.001366904   -0.002131289
     11        8          -0.018649685    0.026007696   -0.005723046
     12        1           0.004771345   -0.005436629    0.008701504
     13        1           0.003549398    0.000726450    0.003406718
 -------------------------------------------------------------------
 Cartesian Forces:  Max     0.026007696 RMS     0.008101839

 GradGradGradGradGradGradGradGradGradGradGradGradGradGradGradGradGradGrad
 Berny optimization.
 Using GEDIIS/GDIIS optimizer.
 FormGI is forming the generalized inverse of G from B-inverse, IUseBI=4.
 Internal  Forces:  Max     0.016613659 RMS     0.004291826
 Search for a local minimum.
 Step number   2 out of a maximum of   74
 All quantities printed in internal units (Hartrees-Bohrs-Radians)
 Mixed Optimization -- RFO/linear search
 Update second derivatives using D2CorX and points    1    2
 DE= -2.20D-02 DEPred=-1.95D-02 R= 1.13D+00
 TightC=F SS=  1.41D+00  RLast= 3.90D-01 DXNew= 5.0454D-01 1.1712D+00
 Trust test= 1.13D+00 RLast= 3.90D-01 DXMaxT set to 5.05D-01
 ITU=  1  0
 Use linear search instead of GDIIS.
     Eigenvalues ---    0.00753   0.00786   0.01251   0.01378   0.01425
     Eigenvalues ---    0.01894   0.02713   0.03048   0.03486   0.12301
     Eigenvalues ---    0.13484   0.14526   0.15984   0.15998   0.15998
     Eigenvalues ---    0.16094   0.17465   0.21879   0.21992   0.23719
     Eigenvalues ---    0.24520   0.27708   0.28284   0.29341   0.36402
     Eigenvalues ---    0.37229   0.37230   0.37230   0.37230   0.37230
     Eigenvalues ---    0.38693   0.50283   0.54073
 RFO step:  Lambda=-5.87010231D-03 EMin= 7.52652477D-03
 Quartic linear search produced a step of  0.46626.
 Iteration  1 RMS(Cart)=  0.06794936 RMS(Int)=  0.00315749
 Iteration  2 RMS(Cart)=  0.00359685 RMS(Int)=  0.00092004
 Iteration  3 RMS(Cart)=  0.00000648 RMS(Int)=  0.00092002
 Iteration  4 RMS(Cart)=  0.00000000 RMS(Int)=  0.00092002
 Variable       Old X    -DE/DX   Delta X   Delta X   Delta X     New X
                                 (Linear)    (Quad)   (Total)
    R1        2.54583   0.00338  -0.01060   0.01646   0.00655   2.55238
    R2        2.79618  -0.00911  -0.06243   0.00844  -0.05377   2.74241
    R3        2.06139   0.00186   0.01836  -0.00923   0.00913   2.07052
    R4        2.82392  -0.00595  -0.03432   0.00278  -0.03106   2.79287
    R5        2.05958   0.00199   0.01752  -0.00800   0.00951   2.06909
    R6        2.75503   0.00906   0.02876   0.02313   0.05101   2.80604
    R7        2.77674  -0.01582  -0.04727  -0.03587  -0.08186   2.69488
    R8        2.07046   0.00230   0.02259  -0.01132   0.01127   2.08173
    R9        2.82941  -0.00592  -0.03481   0.00594  -0.02958   2.79983
   R10        2.79171  -0.01661  -0.05530  -0.04712  -0.10302   2.68869
   R11        2.07000   0.00222   0.02238  -0.01144   0.01094   2.08094
   R12        2.54509   0.00312  -0.01339   0.01987   0.00602   2.55111
   R13        2.06090   0.00207   0.01813  -0.00823   0.00991   2.07080
   R14        2.06114   0.00192   0.01825  -0.00891   0.00934   2.07048
    A1        2.11417   0.00120   0.00423   0.00271   0.00571   2.11988
    A2        2.10432  -0.00035   0.00712  -0.00858  -0.00182   2.10250
    A3        2.06465  -0.00085  -0.01138   0.00650  -0.00519   2.05947
    A4        2.09334   0.00068   0.00705   0.00007   0.00679   2.10013
    A5        2.11281   0.00074   0.00482   0.00059   0.00555   2.11836
    A6        2.07692  -0.00142  -0.01192  -0.00045  -0.01225   2.06467
    A7        2.07937  -0.00243  -0.01230   0.00054  -0.01433   2.06503
    A8        2.13847  -0.00013  -0.01130  -0.03855  -0.04949   2.08899
    A9        1.96791   0.00587   0.03259   0.03046   0.06313   2.03103
   A10        2.08801  -0.00171   0.00222  -0.01925  -0.01783   2.07018
   A11        1.97026  -0.00168  -0.01936   0.01635  -0.00299   1.96726
   A12        2.04686   0.00056  -0.00675   0.00882  -0.00041   2.04645
   A13        2.13122  -0.00498  -0.00148  -0.03172  -0.03321   2.09801
   A14        2.00941   0.00296   0.00536   0.01212   0.01769   2.02710
   A15        1.97554   0.00561   0.02644   0.02792   0.05484   2.03038
   A16        2.07689  -0.00427  -0.03327  -0.02770  -0.06140   2.01549
   A17        2.10307  -0.00040   0.00603   0.00042   0.00361   2.10668
   A18        2.07417  -0.00083  -0.01045  -0.00151  -0.01057   2.06359
   A19        2.10592   0.00123   0.00441   0.00101   0.00679   2.11271
   A20        2.11904   0.00067   0.00414   0.00343   0.00511   2.12414
   A21        2.06343  -0.00066  -0.01074   0.00520  -0.00528   2.05815
   A22        2.10057  -0.00003   0.00654  -0.00748  -0.00068   2.09989
    D1        0.02901   0.00080   0.01085  -0.09195  -0.08048  -0.05147
    D2       -3.12872   0.00049   0.00543  -0.07704  -0.07124   3.08323
    D3       -3.12309   0.00039   0.00669  -0.02044  -0.01326  -3.13635
    D4        0.00237   0.00008   0.00127  -0.00553  -0.00402  -0.00165
    D5       -0.02226   0.00000  -0.00554   0.00266  -0.00244  -0.02470
    D6        3.10100  -0.00080  -0.01082   0.07446   0.06364  -3.11854
    D7        3.12961   0.00040  -0.00149  -0.06719  -0.06808   3.06153
    D8       -0.03032  -0.00040  -0.00677   0.00461  -0.00199  -0.03231
    D9        0.05871  -0.00239  -0.01950   0.05646   0.03640   0.09511
   D10       -1.19612   0.00565   0.01474   0.09181   0.10637  -1.08975
   D11        2.64111   0.00015   0.01745   0.07064   0.08877   2.72988
   D12       -3.06708  -0.00210  -0.01424   0.04185   0.02728  -3.03980
   D13        1.96127   0.00594   0.02001   0.07719   0.09725   2.05852
   D14       -0.48468   0.00043   0.02271   0.05603   0.07965  -0.40503
   D15       -0.14605   0.00271   0.02097   0.05982   0.08036  -0.06570
   D16        2.43439   0.00689   0.06328   0.07912   0.14080   2.57519
   D17       -2.68982  -0.00239  -0.02868   0.02823   0.00082  -2.68900
   D18       -0.10939   0.00179   0.01363   0.04753   0.06127  -0.04812
   D19        0.15513  -0.00180  -0.01385  -0.14859  -0.16125  -0.00612
   D20       -2.97848  -0.00128  -0.01236  -0.13684  -0.14786  -3.12633
   D21        1.33821  -0.00627  -0.02886  -0.15277  -0.18317   1.15504
   D22       -1.79539  -0.00574  -0.02737  -0.14102  -0.16978  -1.96517
   D23       -2.47394  -0.00244  -0.04394  -0.14794  -0.19252  -2.66646
   D24        0.67564  -0.00191  -0.04245  -0.13619  -0.17913   0.49652
   D25       -0.07259   0.00035   0.00527   0.12053   0.12564   0.05305
   D26        3.08772   0.00117   0.01073   0.04708   0.05805  -3.13742
   D27        3.06086  -0.00019   0.00371   0.10855   0.11179  -3.11053
   D28       -0.06201   0.00063   0.00917   0.03510   0.04420  -0.01782
         Item               Value     Threshold  Converged?
 Maximum Force            0.016614     0.000450     NO 
 RMS     Force            0.004292     0.000300     NO 
 Maximum Displacement     0.263258     0.001800     NO 
 RMS     Displacement     0.067629     0.001200     NO 
 Predicted change in Energy=-7.194013D-03
 GradGradGradGradGradGradGradGradGradGradGradGradGradGradGradGradGradGrad

                          Input orientation:                          
 ---------------------------------------------------------------------
 Center     Atomic      Atomic             Coordinates (Angstroms)
 Number     Number       Type             X           Y           Z
 ---------------------------------------------------------------------
      1          6           0        0.157395    0.067667   -0.230593
      2          6           0        0.058273   -0.124546    1.102640
      3          6           0        1.174602    0.250252    1.995716
      4          6           0        2.343940    0.950102    1.406005
      5          6           0        2.346103    1.148839   -0.062210
      6          6           0        1.323092    0.699890   -0.820080
      7          1           0       -0.670753   -0.204846   -0.894223
      8          1           0       -0.844262   -0.552254    1.551349
      9          1           0        3.208094    1.650539   -0.516184
     10          1           0        1.333105    0.846869   -1.905780
     11          8           0        2.438106   -0.396179    1.856559
     12          1           0        2.904870    1.688662    1.999714
     13          1           0        0.913687    0.452481    3.046696
 ---------------------------------------------------------------------
                    Distance matrix (angstroms):
                    1          2          3          4          5
     1  C    0.000000
     2  C    1.350660   0.000000
     3  C    2.454487   1.477921   0.000000
     4  C    2.870213   2.543850   1.484891   0.000000
     5  C    2.446984   2.865755   2.532772   1.481606   0.000000
     6  C    1.451223   2.444650   2.855334   2.461745   1.349990
     7  H    1.095671   2.127296   3.458930   3.964003   3.409711
     8  H    2.136104   1.094917   2.217497   3.527440   3.959258
     9  H    3.448740   3.961425   3.522149   2.220852   1.095821
    10  H    2.189909   3.408729   3.950031   3.464153   2.125111
    11  O    3.126180   2.511131   1.426071   1.422793   2.465202
    12  H    3.892367   3.492218   2.250082   1.101183   2.203444
    13  H    3.385364   2.200920   1.101604   2.232738   3.493140
                    6          7          8          9         10
     6  C    0.000000
     7  H    2.190767   0.000000
     8  H    3.448038   2.476211   0.000000
     9  H    2.132913   4.316343   5.054560   0.000000
    10  H    1.095649   2.478871   4.318590   2.468287   0.000000
    11  O    3.099842   4.155528   3.300220   3.226739   4.113561
    12  H    3.380966   4.974468   4.390755   2.534392   4.293244
    13  H    3.896252   4.298066   2.517129   4.403835   4.985827
                   11         12         13
    11  O    0.000000
    12  H    2.141243   0.000000
    13  H    2.111990   2.566929   0.000000
 Stoichiometry    C6H6O
 Framework group  C1[X(C6H6O)]
 Deg. of freedom    33
 Full point group                 C1      NOp   1
 Largest Abelian subgroup         C1      NOp   1
 Largest concise Abelian subgroup C1      NOp   1
                         Standard orientation:                         
 ---------------------------------------------------------------------
 Center     Atomic      Atomic             Coordinates (Angstroms)
 Number     Number       Type             X           Y           Z
 ---------------------------------------------------------------------
      1          6           0        1.481585   -0.687875    0.090718
      2          6           0        0.374463   -1.429514   -0.129589
      3          6           0       -0.939334   -0.775532   -0.304214
      4          6           0       -0.986745    0.707772   -0.353852
      5          6           0        0.286004    1.434863   -0.137970
      6          6           0        1.432144    0.762475    0.100213
      7          1           0        2.457473   -1.170100    0.215611
      8          1           0        0.422729   -2.521689   -0.190154
      9          1           0        0.266850    2.530356   -0.156701
     10          1           0        2.369037    1.306742    0.262846
     11          8           0       -1.495375   -0.011182    0.763618
     12          1           0       -1.741639    1.217564   -0.972602
     13          1           0       -1.700147   -1.346548   -0.859765
 ---------------------------------------------------------------------
 Rotational constants (GHZ):      4.6499251      3.5092913      2.2549405
 Standard basis: SVP (5D, 7F)
 There are   135 symmetry adapted cartesian basis functions of A   symmetry.
 There are   128 symmetry adapted basis functions of A   symmetry.
   128 basis functions,   217 primitive gaussians,   135 cartesian basis functions
    25 alpha electrons       25 beta electrons
       nuclear repulsion energy       279.9794774895 Hartrees.
 NAtoms=   13 NActive=   13 NUniq=   13 SFac= 1.00D+00 NAtFMM=   60 NAOKFM=F Big=F
 Integral buffers will be    131072 words long.
 Raffenetti 2 integral format.
 Two-electron integral symmetry is turned on.
 One-electron integrals computed using PRISM.
 NBasis=   128 RedAO= T EigKep=  3.17D-04  NBF=   128
 NBsUse=   128 1.00D-06 EigRej= -1.00D+00 NBFU=   128
 Initial guess from the checkpoint file:  "/tmp/Gau-22207.chk"
 B after Tr=     0.000000    0.000000    0.000000
         Rot=    0.999908   -0.002911   -0.010599    0.007984 Ang=  -1.56 deg.
 ExpMin= 1.22D-01 ExpMax= 2.27D+03 ExpMxC= 3.41D+02 IAcc=1 IRadAn=         1 AccDes= 0.00D+00
 Harris functional with IExCor=  402 and IRadAn=       1 diagonalized for initial guess.
 HarFok:  IExCor=  402 AccDes= 0.00D+00 IRadAn=         1 IDoV= 1 UseB2=F ITyADJ=14
 ICtDFT=  3500011 ScaDFX=  1.000000  1.000000  1.000000  1.000000
 FoFCou: FMM=F IPFlag=           0 FMFlag=      100000 FMFlg1=           0
         NFxFlg=           0 DoJE=T BraDBF=F KetDBF=T FulRan=T
         wScrn=  0.000000 ICntrl=     500 IOpCl=  0 I1Cent=   200000004 NGrid=           0
         NMat0=    1 NMatS0=      1 NMatT0=    0 NMatD0=    1 NMtDS0=    0 NMtDT0=    0
 Petite list used in FoFCou.
 Requested convergence on RMS density matrix=1.00D-08 within 128 cycles.
 Requested convergence on MAX density matrix=1.00D-06.
 Requested convergence on             energy=1.00D-06.
 No special actions if energy rises.
 Integral accuracy reduced to 1.0D-05 until final iterations.
 Initial convergence to 1.0D-05 achieved.  Increase integral accuracy.
 SCF Done:  E(RB3LYP) =  -307.170722486     A.U. after   13 cycles
            NFock= 13  Conv=0.39D-08     -V/T= 2.0101
 Calling FoFJK, ICntrl=      2127 FMM=F ISym2X=0 I1Cent= 0 IOpClX= 0 NMat=1 NMatS=1 NMatT=0.
 ***** Axes restored to original set *****
 -------------------------------------------------------------------
 Center     Atomic                   Forces (Hartrees/Bohr)
 Number     Number              X              Y              Z
 -------------------------------------------------------------------
      1        6          -0.003588467   -0.001523406   -0.001992936
      2        6           0.000089441   -0.003040032    0.001533580
      3        6          -0.007965468   -0.000886063    0.010800584
      4        6           0.007790632    0.006573940   -0.008139866
      5        6           0.004073647    0.002381884    0.000837320
      6        6           0.000641263   -0.000189692   -0.004838824
      7        1           0.000971308   -0.000750842    0.001282794
      8        1          -0.000071201    0.002535829   -0.000650297
      9        1          -0.003001154    0.002508995    0.000640193
     10        1           0.001095630   -0.000652038    0.001263018
     11        8          -0.000240519   -0.003706487   -0.000089824
     12        1           0.000215149   -0.003148620    0.001068238
     13        1          -0.000010261   -0.000103470   -0.001713982
 -------------------------------------------------------------------
 Cartesian Forces:  Max     0.010800584 RMS     0.003528106

 GradGradGradGradGradGradGradGradGradGradGradGradGradGradGradGradGradGrad
 Berny optimization.
 Using GEDIIS/GDIIS optimizer.
 FormGI is forming the generalized inverse of G from B-inverse, IUseBI=4.
 Internal  Forces:  Max     0.007479400 RMS     0.001671324
 Search for a local minimum.
 Step number   3 out of a maximum of   74
 All quantities printed in internal units (Hartrees-Bohrs-Radians)
 Mixed Optimization -- RFO/linear search
 Update second derivatives using D2CorX and points    2    3
 DE= -7.22D-03 DEPred=-7.19D-03 R= 1.00D+00
 TightC=F SS=  1.41D+00  RLast= 5.84D-01 DXNew= 8.4853D-01 1.7532D+00
 Trust test= 1.00D+00 RLast= 5.84D-01 DXMaxT set to 8.49D-01
 ITU=  1  1  0
 Use linear search instead of GDIIS.
     Eigenvalues ---    0.00723   0.00786   0.01265   0.01389   0.01434
     Eigenvalues ---    0.01831   0.02573   0.02799   0.03228   0.12138
     Eigenvalues ---    0.13935   0.15127   0.15974   0.15991   0.15997
     Eigenvalues ---    0.16137   0.17538   0.21905   0.21990   0.24031
     Eigenvalues ---    0.26240   0.27684   0.28273   0.29635   0.37189
     Eigenvalues ---    0.37230   0.37230   0.37230   0.37230   0.37300
     Eigenvalues ---    0.39658   0.50337   0.54006
 RFO step:  Lambda=-2.07895415D-03 EMin= 7.23403862D-03
 Quartic linear search produced a step of  0.27408.
 Iteration  1 RMS(Cart)=  0.05742478 RMS(Int)=  0.00218519
 Iteration  2 RMS(Cart)=  0.00254863 RMS(Int)=  0.00069124
 Iteration  3 RMS(Cart)=  0.00000179 RMS(Int)=  0.00069124
 Iteration  4 RMS(Cart)=  0.00000000 RMS(Int)=  0.00069124
 Variable       Old X    -DE/DX   Delta X   Delta X   Delta X     New X
                                 (Linear)    (Quad)   (Total)
    R1        2.55238   0.00282   0.00180   0.00308   0.00534   2.55771
    R2        2.74241   0.00449  -0.01474   0.02096   0.00643   2.74885
    R3        2.07052  -0.00132   0.00250  -0.00345  -0.00094   2.06958
    R4        2.79287   0.00075  -0.00851   0.00350  -0.00475   2.78812
    R5        2.06909  -0.00120   0.00261  -0.00323  -0.00062   2.06847
    R6        2.80604   0.00748   0.01398   0.02103   0.03452   2.84055
    R7        2.69488   0.00156  -0.02244   0.01254  -0.00948   2.68541
    R8        2.08173  -0.00165   0.00309  -0.00432  -0.00123   2.08050
    R9        2.79983   0.00025  -0.00811   0.00301  -0.00556   2.79427
   R10        2.68869   0.00380  -0.02824   0.02546  -0.00291   2.68578
   R11        2.08094  -0.00143   0.00300  -0.00354  -0.00055   2.08039
   R12        2.55111   0.00304   0.00165   0.00424   0.00565   2.55676
   R13        2.07080  -0.00148   0.00272  -0.00414  -0.00142   2.06938
   R14        2.07048  -0.00133   0.00256  -0.00352  -0.00096   2.06952
    A1        2.11988   0.00051   0.00157  -0.00002   0.00009   2.11997
    A2        2.10250  -0.00102  -0.00050  -0.00558  -0.00617   2.09633
    A3        2.05947   0.00051  -0.00142   0.00401   0.00250   2.06197
    A4        2.10013   0.00030   0.00186  -0.00087   0.00015   2.10028
    A5        2.11836  -0.00059   0.00152  -0.00361  -0.00168   2.11668
    A6        2.06467   0.00029  -0.00336   0.00446   0.00152   2.06619
    A7        2.06503  -0.00146  -0.00393  -0.00181  -0.00767   2.05736
    A8        2.08899  -0.00156  -0.01356  -0.02109  -0.03453   2.05446
    A9        2.03103   0.00112   0.01730   0.00159   0.01936   2.05039
   A10        2.07018   0.00050  -0.00489   0.00699   0.00252   2.07270
   A11        1.96726   0.00088  -0.00082   0.00913   0.00808   1.97534
   A12        2.04645   0.00167  -0.00011   0.00199  -0.00027   2.04619
   A13        2.09801  -0.00245  -0.00910  -0.00525  -0.01342   2.08459
   A14        2.02710   0.00093   0.00485   0.01049   0.01510   2.04220
   A15        2.03038   0.00091   0.01503   0.00183   0.01765   2.04803
   A16        2.01549  -0.00054  -0.01683  -0.00678  -0.02398   1.99151
   A17        2.10668  -0.00090   0.00099  -0.00172  -0.00321   2.10347
   A18        2.06359   0.00090  -0.00290   0.00507   0.00323   2.06683
   A19        2.11271   0.00000   0.00186  -0.00276   0.00016   2.11287
   A20        2.12414  -0.00012   0.00140  -0.00108  -0.00202   2.12213
   A21        2.05815   0.00084  -0.00145   0.00478   0.00348   2.06164
   A22        2.09989  -0.00071  -0.00019  -0.00539  -0.00541   2.09449
    D1       -0.05147  -0.00066  -0.02206  -0.06652  -0.08839  -0.13986
    D2        3.08323  -0.00092  -0.01953  -0.07079  -0.09020   2.99303
    D3       -3.13635  -0.00059  -0.00363  -0.03306  -0.03666   3.11017
    D4       -0.00165  -0.00086  -0.00110  -0.03734  -0.03847  -0.04013
    D5       -0.02470   0.00027  -0.00067   0.01807   0.01747  -0.00723
    D6       -3.11854   0.00014   0.01744   0.05878   0.07631  -3.04223
    D7        3.06153   0.00015  -0.01866  -0.01488  -0.03355   3.02798
    D8       -0.03231   0.00003  -0.00055   0.02582   0.02530  -0.00701
    D9        0.09511  -0.00015   0.00998   0.03809   0.04777   0.14288
   D10       -1.08975   0.00137   0.02915   0.04177   0.07097  -1.01878
   D11        2.72988   0.00033   0.02433   0.05369   0.07806   2.80794
   D12       -3.03980   0.00011   0.00748   0.04227   0.04954  -2.99026
   D13        2.05852   0.00163   0.02665   0.04594   0.07275   2.13127
   D14       -0.40503   0.00059   0.02183   0.05787   0.07984  -0.32519
   D15       -0.06570   0.00105   0.02202   0.03406   0.05604  -0.00965
   D16        2.57519   0.00162   0.03859   0.03158   0.06967   2.64486
   D17       -2.68900   0.00039   0.00023   0.01976   0.02048  -2.66852
   D18       -0.04812   0.00096   0.01679   0.01728   0.03411  -0.01401
   D19       -0.00612  -0.00137  -0.04419  -0.08195  -0.12564  -0.13176
   D20       -3.12633  -0.00140  -0.04052  -0.11290  -0.15299   3.00386
   D21        1.15504  -0.00252  -0.05020  -0.08259  -0.13337   1.02168
   D22       -1.96517  -0.00256  -0.04653  -0.11354  -0.16072  -2.12588
   D23       -2.66646  -0.00093  -0.05277  -0.07751  -0.13015  -2.79661
   D24        0.49652  -0.00097  -0.04910  -0.10846  -0.15750   0.33902
   D25        0.05305   0.00071   0.03444   0.05850   0.09276   0.14581
   D26       -3.13742   0.00088   0.01591   0.01711   0.03307  -3.10435
   D27       -3.11053   0.00076   0.03064   0.09042   0.12088  -2.98966
   D28       -0.01782   0.00093   0.01211   0.04903   0.06118   0.04337
         Item               Value     Threshold  Converged?
 Maximum Force            0.007479     0.000450     NO 
 RMS     Force            0.001671     0.000300     NO 
 Maximum Displacement     0.245937     0.001800     NO 
 RMS     Displacement     0.057244     0.001200     NO 
 Predicted change in Energy=-1.676059D-03
 GradGradGradGradGradGradGradGradGradGradGradGradGradGradGradGradGradGrad

                          Input orientation:                          
 ---------------------------------------------------------------------
 Center     Atomic      Atomic             Coordinates (Angstroms)
 Number     Number       Type             X           Y           Z
 ---------------------------------------------------------------------
      1          6           0        0.179863    0.023620   -0.233486
      2          6           0        0.047561   -0.100284    1.107805
      3          6           0        1.164185    0.258200    2.003053
      4          6           0        2.362630    0.932904    1.396437
      5          6           0        2.336391    1.176130   -0.061849
      6          6           0        1.342360    0.667030   -0.825573
      7          1           0       -0.640737   -0.271301   -0.896088
      8          1           0       -0.884619   -0.458145    1.556245
      9          1           0        3.135338    1.780683   -0.503859
     10          1           0        1.349962    0.822854   -1.909545
     11          8           0        2.399035   -0.421935    1.824276
     12          1           0        2.968738    1.615253    2.012068
     13          1           0        0.925544    0.452469    3.060125
 ---------------------------------------------------------------------
                    Distance matrix (angstroms):
                    1          2          3          4          5
     1  C    0.000000
     2  C    1.353483   0.000000
     3  C    2.454796   1.475409   0.000000
     4  C    2.871919   2.551536   1.503156   0.000000
     5  C    2.451195   2.869855   2.545679   1.478663   0.000000
     6  C    1.454628   2.450148   2.863566   2.459465   1.352981
     7  H    1.095172   2.125696   3.455883   3.965601   3.413840
     8  H    2.137371   1.094587   2.215939   3.536267   3.957776
     9  H    3.448942   3.958518   3.533836   2.219668   1.095067
    10  H    2.194785   3.413625   3.957495   3.459353   2.124106
    11  O    3.059025   2.479158   1.421056   1.421253   2.472893
    12  H    3.918371   3.506286   2.257894   1.100894   2.212198
    13  H    3.404090   2.210870   1.100951   2.250310   3.501556
                    6          7          8          9         10
     6  C    0.000000
     7  H    2.195019   0.000000
     8  H    3.449421   2.471502   0.000000
     9  H    2.135063   4.315463   5.041471   0.000000
    10  H    1.095141   2.487399   4.318102   2.465959   0.000000
    11  O    3.053540   4.082068   3.294774   3.288446   4.073263
    12  H    3.405355   5.004474   4.399445   2.526858   4.315945
    13  H    3.913876   4.316098   2.523403   4.398786   5.001493
                   11         12         13
    11  O    0.000000
    12  H    2.123667   0.000000
    13  H    2.112601   2.573933   0.000000
 Stoichiometry    C6H6O
 Framework group  C1[X(C6H6O)]
 Deg. of freedom    33
 Full point group                 C1      NOp   1
 Largest Abelian subgroup         C1      NOp   1
 Largest concise Abelian subgroup C1      NOp   1
                         Standard orientation:                         
 ---------------------------------------------------------------------
 Center     Atomic      Atomic             Coordinates (Angstroms)
 Number     Number       Type             X           Y           Z
 ---------------------------------------------------------------------
      1          6           0        1.450684   -0.718549    0.114806
      2          6           0        0.337853   -1.433906   -0.171182
      3          6           0       -0.965690   -0.758159   -0.315997
      4          6           0       -0.981221    0.744898   -0.323467
      5          6           0        0.317224    1.435875   -0.171694
      6          6           0        1.438210    0.736021    0.118395
      7          1           0        2.411010   -1.227215    0.250581
      8          1           0        0.379529   -2.519045   -0.308510
      9          1           0        0.348192    2.522328   -0.305236
     10          1           0        2.388835    1.260052    0.263439
     11          8           0       -1.446673   -0.006193    0.789716
     12          1           0       -1.775121    1.275079   -0.871737
     13          1           0       -1.761419   -1.298737   -0.851426
 ---------------------------------------------------------------------
 Rotational constants (GHZ):      4.5929027      3.5526022      2.2756340
 Standard basis: SVP (5D, 7F)
 There are   135 symmetry adapted cartesian basis functions of A   symmetry.
 There are   128 symmetry adapted basis functions of A   symmetry.
   128 basis functions,   217 primitive gaussians,   135 cartesian basis functions
    25 alpha electrons       25 beta electrons
       nuclear repulsion energy       280.1055447734 Hartrees.
 NAtoms=   13 NActive=   13 NUniq=   13 SFac= 1.00D+00 NAtFMM=   60 NAOKFM=F Big=F
 Integral buffers will be    131072 words long.
 Raffenetti 2 integral format.
 Two-electron integral symmetry is turned on.
 One-electron integrals computed using PRISM.
 NBasis=   128 RedAO= T EigKep=  3.28D-04  NBF=   128
 NBsUse=   128 1.00D-06 EigRej= -1.00D+00 NBFU=   128
 Initial guess from the checkpoint file:  "/tmp/Gau-22207.chk"
 B after Tr=     0.000000    0.000000    0.000000
         Rot=    0.999930   -0.003506   -0.004904    0.010147 Ang=  -1.35 deg.
 ExpMin= 1.22D-01 ExpMax= 2.27D+03 ExpMxC= 3.41D+02 IAcc=1 IRadAn=         1 AccDes= 0.00D+00
 Harris functional with IExCor=  402 and IRadAn=       1 diagonalized for initial guess.
 HarFok:  IExCor=  402 AccDes= 0.00D+00 IRadAn=         1 IDoV= 1 UseB2=F ITyADJ=14
 ICtDFT=  3500011 ScaDFX=  1.000000  1.000000  1.000000  1.000000
 FoFCou: FMM=F IPFlag=           0 FMFlag=      100000 FMFlg1=           0
         NFxFlg=           0 DoJE=T BraDBF=F KetDBF=T FulRan=T
         wScrn=  0.000000 ICntrl=     500 IOpCl=  0 I1Cent=   200000004 NGrid=           0
         NMat0=    1 NMatS0=      1 NMatT0=    0 NMatD0=    1 NMtDS0=    0 NMtDT0=    0
 Petite list used in FoFCou.
 Requested convergence on RMS density matrix=1.00D-08 within 128 cycles.
 Requested convergence on MAX density matrix=1.00D-06.
 Requested convergence on             energy=1.00D-06.
 No special actions if energy rises.
 Integral accuracy reduced to 1.0D-05 until final iterations.
 Initial convergence to 1.0D-05 achieved.  Increase integral accuracy.
 SCF Done:  E(RB3LYP) =  -307.172504206     A.U. after   13 cycles
            NFock= 13  Conv=0.36D-08     -V/T= 2.0102
 Calling FoFJK, ICntrl=      2127 FMM=F ISym2X=0 I1Cent= 0 IOpClX= 0 NMat=1 NMatS=1 NMatT=0.
 ***** Axes restored to original set *****
 -------------------------------------------------------------------
 Center     Atomic                   Forces (Hartrees/Bohr)
 Number     Number              X              Y              Z
 -------------------------------------------------------------------
      1        6          -0.000334830    0.000502253   -0.002458881
      2        6           0.000497610   -0.001018244    0.002202050
      3        6          -0.005977079   -0.001336669    0.006027534
      4        6           0.004710788    0.004783955   -0.005001147
      5        6           0.003188656    0.000648632    0.002847827
      6        6          -0.002421973   -0.000412935   -0.002063487
      7        1           0.000941785   -0.000279422    0.000679127
      8        1           0.000349308    0.001201338   -0.000689703
      9        1          -0.001451172    0.000082715    0.000446074
     10        1           0.000245561   -0.000411613    0.000968523
     11        8           0.001691303   -0.002664968   -0.000704026
     12        1          -0.000992476   -0.001235919   -0.000545331
     13        1          -0.000447481    0.000140877   -0.001708559
 -------------------------------------------------------------------
 Cartesian Forces:  Max     0.006027534 RMS     0.002313967

 GradGradGradGradGradGradGradGradGradGradGradGradGradGradGradGradGradGrad
 Berny optimization.
 Using GEDIIS/GDIIS optimizer.
 FormGI is forming the generalized inverse of G from B-inverse, IUseBI=4.
 Internal  Forces:  Max     0.004448237 RMS     0.000964111
 Search for a local minimum.
 Step number   4 out of a maximum of   74
 All quantities printed in internal units (Hartrees-Bohrs-Radians)
 Mixed Optimization -- En-DIIS/RFO-DIIS
 Update second derivatives using D2CorX and points    3    4
 DE= -1.78D-03 DEPred=-1.68D-03 R= 1.06D+00
 TightC=F SS=  1.41D+00  RLast= 4.70D-01 DXNew= 1.4270D+00 1.4101D+00
 Trust test= 1.06D+00 RLast= 4.70D-01 DXMaxT set to 1.41D+00
 ITU=  1  1  1  0
 Use linear search instead of GDIIS.
     Eigenvalues ---    0.00753   0.00804   0.01278   0.01416   0.01448
     Eigenvalues ---    0.01743   0.02513   0.02735   0.03148   0.11920
     Eigenvalues ---    0.14094   0.15457   0.15896   0.15981   0.16002
     Eigenvalues ---    0.16082   0.17585   0.21891   0.21926   0.23860
     Eigenvalues ---    0.26040   0.27646   0.28292   0.30642   0.35226
     Eigenvalues ---    0.37230   0.37230   0.37230   0.37230   0.37243
     Eigenvalues ---    0.38863   0.50318   0.53037
 RFO step:  Lambda=-2.38640449D-04 EMin= 7.52728496D-03
 Quartic linear search produced a step of  0.31390.
 Iteration  1 RMS(Cart)=  0.01994918 RMS(Int)=  0.00034748
 Iteration  2 RMS(Cart)=  0.00032463 RMS(Int)=  0.00018056
 Iteration  3 RMS(Cart)=  0.00000003 RMS(Int)=  0.00018056
 Variable       Old X    -DE/DX   Delta X   Delta X   Delta X     New X
                                 (Linear)    (Quad)   (Total)
    R1        2.55771   0.00171   0.00167   0.00293   0.00470   2.56241
    R2        2.74885  -0.00045   0.00202  -0.00866  -0.00659   2.74226
    R3        2.06958  -0.00104  -0.00030  -0.00235  -0.00265   2.06693
    R4        2.78812  -0.00072  -0.00149  -0.00464  -0.00608   2.78204
    R5        2.06847  -0.00097  -0.00020  -0.00219  -0.00239   2.06608
    R6        2.84055   0.00445   0.01083   0.01301   0.02377   2.86432
    R7        2.68541   0.00229  -0.00297   0.00692   0.00404   2.68944
    R8        2.08050  -0.00152  -0.00039  -0.00372  -0.00411   2.07639
    R9        2.79427  -0.00208  -0.00175  -0.01094  -0.01278   2.78148
   R10        2.68578   0.00215  -0.00091   0.00142   0.00044   2.68621
   R11        2.08039  -0.00162  -0.00017  -0.00422  -0.00439   2.07600
   R12        2.55676   0.00219   0.00177   0.00387   0.00560   2.56236
   R13        2.06938  -0.00119  -0.00045  -0.00278  -0.00323   2.06614
   R14        2.06952  -0.00102  -0.00030  -0.00226  -0.00256   2.06696
    A1        2.11997   0.00028   0.00003   0.00126   0.00087   2.12084
    A2        2.09633  -0.00025  -0.00194   0.00013  -0.00178   2.09455
    A3        2.06197  -0.00001   0.00078  -0.00072   0.00007   2.06204
    A4        2.10028   0.00015   0.00005   0.00223   0.00196   2.10224
    A5        2.11668  -0.00046  -0.00053  -0.00338  -0.00382   2.11286
    A6        2.06619   0.00031   0.00048   0.00102   0.00159   2.06778
    A7        2.05736  -0.00085  -0.00241  -0.00602  -0.00894   2.04842
    A8        2.05446  -0.00061  -0.01084  -0.00095  -0.01183   2.04263
    A9        2.05039   0.00016   0.00608   0.00054   0.00675   2.05715
   A10        2.07270   0.00062   0.00079  -0.00017   0.00080   2.07350
   A11        1.97534   0.00095   0.00254   0.01050   0.01298   1.98832
   A12        2.04619   0.00052  -0.00008   0.00299   0.00236   2.04855
   A13        2.08459  -0.00068  -0.00421  -0.00552  -0.00945   2.07514
   A14        2.04220   0.00010   0.00474  -0.00088   0.00379   2.04599
   A15        2.04803   0.00013   0.00554   0.00135   0.00709   2.05512
   A16        1.99151   0.00012  -0.00753   0.00161  -0.00605   1.98546
   A17        2.10347  -0.00015  -0.00101   0.00041  -0.00130   2.10217
   A18        2.06683   0.00027   0.00101   0.00040   0.00158   2.06840
   A19        2.11287  -0.00012   0.00005  -0.00090  -0.00068   2.11219
   A20        2.12213   0.00005  -0.00063   0.00036  -0.00087   2.12126
   A21        2.06164   0.00006   0.00109  -0.00027   0.00088   2.06252
   A22        2.09449  -0.00010  -0.00170   0.00111  -0.00054   2.09395
    D1       -0.13986  -0.00004  -0.02775  -0.00111  -0.02885  -0.16871
    D2        2.99303  -0.00022  -0.02831  -0.01869  -0.04697   2.94605
    D3        3.11017  -0.00025  -0.01151  -0.00849  -0.02003   3.09014
    D4       -0.04013  -0.00042  -0.01208  -0.02606  -0.03816  -0.07829
    D5       -0.00723   0.00011   0.00548   0.00697   0.01244   0.00520
    D6       -3.04223  -0.00010   0.02395  -0.00597   0.01800  -3.02423
    D7        3.02798   0.00029  -0.01053   0.01425   0.00367   3.03165
    D8       -0.00701   0.00008   0.00794   0.00131   0.00923   0.00222
    D9        0.14288  -0.00017   0.01499  -0.00076   0.01421   0.15709
   D10       -1.01878   0.00093   0.02228   0.00581   0.02805  -0.99073
   D11        2.80794  -0.00016   0.02450  -0.01302   0.01143   2.81938
   D12       -2.99026   0.00000   0.01555   0.01634   0.03190  -2.95835
   D13        2.13127   0.00110   0.02284   0.02291   0.04574   2.17701
   D14       -0.32519   0.00001   0.02506   0.00407   0.02913  -0.29606
   D15       -0.00965   0.00024   0.01759  -0.00316   0.01441   0.00476
   D16        2.64486   0.00020   0.02187  -0.00530   0.01648   2.66133
   D17       -2.66852   0.00036   0.00643   0.00909   0.01559  -2.65293
   D18       -0.01401   0.00032   0.01071   0.00696   0.01766   0.00365
   D19       -0.13176  -0.00012  -0.03944   0.00929  -0.03006  -0.16183
   D20        3.00386  -0.00035  -0.04802  -0.00693  -0.05491   2.94895
   D21        1.02168  -0.00041  -0.04186   0.00970  -0.03226   0.98941
   D22       -2.12588  -0.00063  -0.05045  -0.00652  -0.05711  -2.18300
   D23       -2.79661   0.00015  -0.04086   0.01335  -0.02744  -2.82405
   D24        0.33902  -0.00007  -0.04944  -0.00288  -0.05229   0.28673
   D25        0.14581  -0.00003   0.02912  -0.01120   0.01786   0.16367
   D26       -3.10435   0.00019   0.01038   0.00190   0.01228  -3.09207
   D27       -2.98966   0.00019   0.03794   0.00545   0.04333  -2.94632
   D28        0.04337   0.00042   0.01921   0.01855   0.03775   0.08112
         Item               Value     Threshold  Converged?
 Maximum Force            0.004448     0.000450     NO 
 RMS     Force            0.000964     0.000300     NO 
 Maximum Displacement     0.078081     0.001800     NO 
 RMS     Displacement     0.019940     0.001200     NO 
 Predicted change in Energy=-2.339783D-04
 GradGradGradGradGradGradGradGradGradGradGradGradGradGradGradGradGradGrad

                          Input orientation:                          
 ---------------------------------------------------------------------
 Center     Atomic      Atomic             Coordinates (Angstroms)
 Number     Number       Type             X           Y           Z
 ---------------------------------------------------------------------
      1          6           0        0.189577    0.011500   -0.233697
      2          6           0        0.047563   -0.095029    1.110599
      3          6           0        1.160560    0.254876    2.008461
      4          6           0        2.370445    0.926090    1.389510
      5          6           0        2.335408    1.181132   -0.059699
      6          6           0        1.345281    0.659628   -0.825380
      7          1           0       -0.624868   -0.295956   -0.895879
      8          1           0       -0.898485   -0.416997    1.554091
      9          1           0        3.106572    1.822001   -0.495615
     10          1           0        1.352197    0.815194   -1.908026
     11          8           0        2.391550   -0.431420    1.810625
     12          1           0        2.984219    1.591994    2.011376
     13          1           0        0.926231    0.454464    3.063242
 ---------------------------------------------------------------------
                    Distance matrix (angstroms):
                    1          2          3          4          5
     1  C    0.000000
     2  C    1.355968   0.000000
     3  C    2.455466   1.472193   0.000000
     4  C    2.868355   2.552696   1.515734   0.000000
     5  C    2.450083   2.869220   2.552548   1.471898   0.000000
     6  C    1.451141   2.449816   2.868554   2.455138   1.355945
     7  H    1.093771   2.125674   3.453456   3.960846   3.412363
     8  H    2.136276   1.093323   2.213037   3.537919   3.951760
     9  H    3.443163   3.951261   3.537405   2.213196   1.093357
    10  H    2.191115   3.412137   3.961004   3.452951   2.125306
    11  O    3.037123   2.469306   1.423193   1.421484   2.470139
    12  H    3.917695   3.504482   2.261332   1.098573   2.208872
    13  H    3.407152   2.210614   1.098776   2.260434   3.502369
                    6          7          8          9         10
     6  C    0.000000
     7  H    2.190798   0.000000
     8  H    3.443181   2.468172   0.000000
     9  H    2.135884   4.309245   5.025424   0.000000
    10  H    1.093787   2.483522   4.309306   2.467062   0.000000
    11  O    3.038682   4.054910   3.300053   3.302712   4.057421
    12  H    3.406260   5.004197   4.395514   2.520491   4.316089
    13  H    3.916514   4.317833   2.523207   4.391982   5.002508
                   11         12         13
    11  O    0.000000
    12  H    2.117961   0.000000
    13  H    2.121556   2.575987   0.000000
 Stoichiometry    C6H6O
 Framework group  C1[X(C6H6O)]
 Deg. of freedom    33
 Full point group                 C1      NOp   1
[...]
   D23       -2.82342  -0.00001   0.00022  -0.00032  -0.00010  -2.82351
   D24        0.29103  -0.00001   0.00019  -0.00045  -0.00027   0.29076
   D25        0.17011  -0.00001  -0.00033   0.00007  -0.00026   0.16985
   D26       -3.09340   0.00000  -0.00011  -0.00003  -0.00014  -3.09354
   D27       -2.94370  -0.00001  -0.00029   0.00021  -0.00008  -2.94378
   D28        0.07598   0.00000  -0.00007   0.00011   0.00004   0.07601
         Item               Value     Threshold  Converged?
 Maximum Force            0.000030     0.000450     YES
 RMS     Force            0.000012     0.000300     YES
 Maximum Displacement     0.000468     0.001800     YES
 RMS     Displacement     0.000124     0.001200     YES
 Predicted change in Energy=-4.059802D-08
 Optimization completed.
    -- Stationary point found.
                           ----------------------------
                           !   Optimized Parameters   !
                           ! (Angstroms and Degrees)  !
 --------------------------                            --------------------------
 ! Name  Definition              Value          Derivative Info.                !
 --------------------------------------------------------------------------------
 ! R1    R(1,2)                  1.357          -DE/DX =    0.0                 !
 ! R2    R(1,6)                  1.4508         -DE/DX =    0.0                 !
 ! R3    R(1,7)                  1.0936         -DE/DX =    0.0                 !
 ! R4    R(2,3)                  1.4708         -DE/DX =    0.0                 !
 ! R5    R(2,8)                  1.0933         -DE/DX =    0.0                 !
 ! R6    R(3,4)                  1.5213         -DE/DX =    0.0                 !
 ! R7    R(3,11)                 1.4229         -DE/DX =    0.0                 !
 ! R8    R(3,13)                 1.0982         -DE/DX =    0.0                 !
 ! R9    R(4,5)                  1.4707         -DE/DX =    0.0                 !
 ! R10   R(4,11)                 1.4229         -DE/DX =    0.0                 !
 ! R11   R(4,12)                 1.0982         -DE/DX =    0.0                 !
 ! R12   R(5,6)                  1.357          -DE/DX =    0.0                 !
 ! R13   R(5,9)                  1.0932         -DE/DX =    0.0                 !
 ! R14   R(6,10)                 1.0936         -DE/DX =    0.0                 !
 ! A1    A(2,1,6)              121.5277         -DE/DX =    0.0                 !
 ! A2    A(2,1,7)              119.905          -DE/DX =    0.0                 !
 ! A3    A(6,1,7)              118.2119         -DE/DX =    0.0                 !
 ! A4    A(1,2,3)              120.5092         -DE/DX =    0.0                 !
 ! A5    A(1,2,8)              120.8867         -DE/DX =    0.0                 !
 ! A6    A(3,2,8)              118.5847         -DE/DX =    0.0                 !
 ! A7    A(2,3,4)              117.276          -DE/DX =    0.0                 !
 ! A8    A(2,3,11)             117.2629         -DE/DX =    0.0                 !
 ! A9    A(2,3,13)             117.835          -DE/DX =    0.0                 !
 ! A10   A(4,3,13)             118.8647         -DE/DX =    0.0                 !
 ! A11   A(11,3,13)            113.8363         -DE/DX =    0.0                 !
 ! A12   A(3,4,5)              117.2999         -DE/DX =    0.0                 !
 ! A13   A(3,4,12)             118.8391         -DE/DX =    0.0                 !
 ! A14   A(5,4,11)             117.2793         -DE/DX =    0.0                 !
 ! A15   A(5,4,12)             117.8403         -DE/DX =    0.0                 !
 ! A16   A(11,4,12)            113.811          -DE/DX =    0.0                 !
 ! A17   A(4,5,6)              120.4994         -DE/DX =    0.0                 !
 ! A18   A(4,5,9)              118.5801         -DE/DX =    0.0                 !
 ! A19   A(6,5,9)              120.9019         -DE/DX =    0.0                 !
 ! A20   A(1,6,5)              121.5222         -DE/DX =    0.0                 !
 ! A21   A(1,6,10)             118.2079         -DE/DX =    0.0                 !
 ! A22   A(5,6,10)             119.9127         -DE/DX =    0.0                 !
 ! D1    D(6,1,2,3)             -9.7084         -DE/DX =    0.0                 !
 ! D2    D(6,1,2,8)            168.6679         -DE/DX =    0.0                 !
 ! D3    D(7,1,2,3)            177.2588         -DE/DX =    0.0                 !
 ! D4    D(7,1,2,8)             -4.3649         -DE/DX =    0.0                 !
 ! D5    D(2,1,6,5)             -0.0241         -DE/DX =    0.0                 !
 ! D6    D(2,1,6,10)          -173.1537         -DE/DX =    0.0                 !
 ! D7    D(7,1,6,5)            173.1228         -DE/DX =    0.0                 !
 ! D8    D(7,1,6,10)            -0.0069         -DE/DX =    0.0                 !
 ! D9    D(1,2,3,4)              9.3142         -DE/DX =    0.0                 !
 ! D10   D(1,2,3,11)           -56.4222         -DE/DX =    0.0                 !
 ! D11   D(1,2,3,13)           161.7448         -DE/DX =    0.0                 !
 ! D12   D(8,2,3,4)           -169.0989         -DE/DX =    0.0                 !
 ! D13   D(8,2,3,11)           125.1646         -DE/DX =    0.0                 !
 ! D14   D(8,2,3,13)           -16.6683         -DE/DX =    0.0                 !
 ! D15   D(2,3,4,5)              0.0085         -DE/DX =    0.0                 !
 ! D16   D(2,3,4,12)           152.1566         -DE/DX =    0.0                 !
 ! D17   D(13,3,4,5)          -152.1303         -DE/DX =    0.0                 !
 ! D18   D(13,3,4,12)            0.0179         -DE/DX =    0.0                 !
 ! D19   D(3,4,5,6)             -9.3387         -DE/DX =    0.0                 !
 ! D20   D(3,4,5,9)            169.1056         -DE/DX =    0.0                 !
 ! D21   D(11,4,5,6)            56.4121         -DE/DX =    0.0                 !
 ! D22   D(11,4,5,9)          -125.1435         -DE/DX =    0.0                 !
 ! D23   D(12,4,5,6)          -161.7698         -DE/DX =    0.0                 !
 ! D24   D(12,4,5,9)            16.6746         -DE/DX =    0.0                 !
 ! D25   D(4,5,6,1)              9.7464         -DE/DX =    0.0                 !
 ! D26   D(4,5,6,10)          -177.239          -DE/DX =    0.0                 !
 ! D27   D(9,5,6,1)           -168.6615         -DE/DX =    0.0                 !
 ! D28   D(9,5,6,10)             4.3531         -DE/DX =    0.0                 !
 --------------------------------------------------------------------------------
 GradGradGradGradGradGradGradGradGradGradGradGradGradGradGradGradGradGrad

                          Input orientation:                          
 ---------------------------------------------------------------------
 Center     Atomic      Atomic             Coordinates (Angstroms)
 Number     Number       Type             X           Y           Z
 ---------------------------------------------------------------------
      1          6           0        0.190275    0.010719   -0.233841
      2          6           0        0.047926   -0.095163    1.111470
      3          6           0        1.159981    0.251221    2.009543
      4          6           0        2.372663    0.928113    1.388608
      5          6           0        2.335667    1.181949   -0.059563
      6          6           0        1.346933    0.656133   -0.825883
      7          1           0       -0.627279   -0.291938   -0.894118
      8          1           0       -0.900647   -0.413334    1.552132
      9          1           0        3.105349    1.822635   -0.498057
     10          1           0        1.353672    0.813305   -1.908107
     11          8           0        2.393493   -0.430040    1.812309
     12          1           0        2.982983    1.596113    2.010952
     13          1           0        0.925237    0.447764    3.064163
 ---------------------------------------------------------------------
                    Distance matrix (angstroms):
                    1          2          3          4          5
     1  C    0.000000
     2  C    1.356958   0.000000
     3  C    2.455798   1.470777   0.000000
     4  C    2.869978   2.555055   1.521296   0.000000
     5  C    2.450481   2.869859   2.555326   1.470714   0.000000
     6  C    1.450838   2.450551   2.870287   2.455619   1.356954
     7  H    1.093601   2.125325   3.452618   3.962199   3.412898
     8  H    2.135329   1.093255   2.212927   3.541297   3.951736
     9  H    3.442456   3.951754   3.541448   2.212805   1.093237
    10  H    2.191074   3.412936   3.962504   3.452514   2.125401
    11  O    3.038942   2.470831   1.422874   1.422862   2.470983
    12  H    3.918136   3.504860   2.265408   1.098192   2.208525
    13  H    3.407052   2.208496   1.098160   2.265670   3.505139
                    6          7          8          9         10
     6  C    0.000000
     7  H    2.191120   0.000000
     8  H    3.442430   2.464469   0.000000
     9  H    2.135468   4.308224   5.025021   0.000000
    10  H    1.093599   2.484734   4.308115   2.464824   0.000000
    11  O    3.038933   4.058188   3.304442   3.304402   4.058156
    12  H    3.407030   5.003815   4.396701   2.522184   4.315839
    13  H    3.918379   4.315722   2.522217   4.396882   5.004063
                   11         12         13
    11  O    0.000000
    12  H    2.119493   0.000000
    13  H    2.119777   2.581138   0.000000
 Stoichiometry    C6H6O
 Framework group  C1[X(C6H6O)]
 Deg. of freedom    33
 Full point group                 C1      NOp   1
 Largest Abelian subgroup         C1      NOp   1
 Largest concise Abelian subgroup C1      NOp   1
                         Standard orientation:                         
 ---------------------------------------------------------------------
 Center     Atomic      Atomic             Coordinates (Angstroms)
 Number     Number       Type             X           Y           Z
 ---------------------------------------------------------------------
      1          6           0        1.440253   -0.725665    0.123329
      2          6           0        0.324372   -1.434970   -0.181682
      3          6           0       -0.975775   -0.760504   -0.315466
      4          6           0       -0.975259    0.760792   -0.315444
      5          6           0        0.325030    1.434889   -0.181867
      6          6           0        1.440552    0.725173    0.123481
      7          1           0        2.393414   -1.242859    0.264599
      8          1           0        0.375323   -2.512558   -0.358925
      9          1           0        0.376131    2.512463   -0.359037
     10          1           0        2.393943    1.241876    0.264979
     11          8           0       -1.432860    0.000295    0.796662
     12          1           0       -1.775246    1.290785   -0.849442
     13          1           0       -1.775735   -1.290353   -0.849582
 ---------------------------------------------------------------------
 Rotational constants (GHZ):      4.5735017      3.5673931      2.2825067

 **********************************************************************

            Population analysis using the SCF density.

 **********************************************************************

 Orbital symmetries:
       Occupied  (A) (A) (A) (A) (A) (A) (A) (A) (A) (A) (A) (A)
                 (A) (A) (A) (A) (A) (A) (A) (A) (A) (A) (A) (A)
                 (A)
       Virtual   (A) (A) (A) (A) (A) (A) (A) (A) (A) (A) (A) (A)
                 (A) (A) (A) (A) (A) (A) (A) (A) (A) (A) (A) (A)
                 (A) (A) (A) (A) (A) (A) (A) (A) (A) (A) (A) (A)
                 (A) (A) (A) (A) (A) (A) (A) (A) (A) (A) (A) (A)
                 (A) (A) (A) (A) (A) (A) (A) (A) (A) (A) (A) (A)
                 (A) (A) (A) (A) (A) (A) (A) (A) (A) (A) (A) (A)
                 (A) (A) (A) (A) (A) (A) (A) (A) (A) (A) (A) (A)
                 (A) (A) (A) (A) (A) (A) (A) (A) (A) (A) (A) (A)
                 (A) (A) (A) (A) (A) (A) (A)
 The electronic state is 1-A.
 Alpha  occ. eigenvalues --  -19.14495 -10.24873 -10.24861 -10.19922 -10.19906
 Alpha  occ. eigenvalues --  -10.19652 -10.19648  -1.07371  -0.82129  -0.75231
 Alpha  occ. eigenvalues --   -0.68660  -0.62804  -0.59163  -0.53896  -0.49184
 Alpha  occ. eigenvalues --   -0.47901  -0.45825  -0.43897  -0.40694  -0.37656
 Alpha  occ. eigenvalues --   -0.36378  -0.35933  -0.28589  -0.27387  -0.23871
 Alpha virt. eigenvalues --   -0.04967   0.03514   0.05288   0.09103   0.09218
 Alpha virt. eigenvalues --    0.12455   0.12765   0.15170   0.16551   0.17427
 Alpha virt. eigenvalues --    0.25616   0.25936   0.27406   0.30699   0.37183
 Alpha virt. eigenvalues --    0.39906   0.41184   0.44129   0.44147   0.44977
 Alpha virt. eigenvalues --    0.48032   0.48350   0.51059   0.51106   0.53232
 Alpha virt. eigenvalues --    0.54101   0.55022   0.59742   0.61651   0.62749
 Alpha virt. eigenvalues --    0.63392   0.65094   0.65916   0.68795   0.69479
 Alpha virt. eigenvalues --    0.71661   0.72095   0.73785   0.77780   0.81320
 Alpha virt. eigenvalues --    0.86458   0.88953   0.94227   0.99647   1.05229
 Alpha virt. eigenvalues --    1.06528   1.13652   1.21387   1.25906   1.30970
 Alpha virt. eigenvalues --    1.31076   1.34462   1.36161   1.44312   1.52605
 Alpha virt. eigenvalues --    1.53901   1.59360   1.63144   1.70325   1.71372
 Alpha virt. eigenvalues --    1.71395   1.72804   1.73559   1.75754   1.77590
 Alpha virt. eigenvalues --    1.78892   1.80383   1.89790   1.92472   1.92756
 Alpha virt. eigenvalues --    1.94630   1.97532   1.97916   2.00147   2.04717
 Alpha virt. eigenvalues --    2.05995   2.08841   2.09783   2.17731   2.22095
 Alpha virt. eigenvalues --    2.26768   2.28645   2.32474   2.37328   2.44189
 Alpha virt. eigenvalues --    2.50718   2.52744   2.57823   2.69378   2.72736
 Alpha virt. eigenvalues --    2.73255   2.73303   2.81934   2.82258   2.85709
 Alpha virt. eigenvalues --    2.91012   3.00761   3.01978   3.14220   3.16363
 Alpha virt. eigenvalues --    3.33314   3.42785   3.53193
          Condensed to atoms (all electrons):
               1          2          3          4          5          6
     1  C    5.032356   0.385675   0.072475  -0.100391   0.044632   0.238615
     2  C    0.385675   5.042037   0.245583   0.044369  -0.080996   0.044598
     3  C    0.072475   0.245583   5.010956   0.063417   0.044423  -0.100414
     4  C   -0.100391   0.044369   0.063417   5.010794   0.245556   0.072520
     5  C    0.044632  -0.080996   0.044423   0.245556   5.042319   0.385385
     6  C    0.238615   0.044598  -0.100414   0.072520   0.385385   5.032559
     7  H    0.430897  -0.067067   0.013527  -0.001539   0.015323  -0.069706
     8  H   -0.066144   0.438594  -0.074976   0.010099  -0.001734   0.014049
     9  H    0.014040  -0.001732   0.010097  -0.074940   0.438620  -0.066165
    10  H   -0.069675   0.015320  -0.001536   0.013521  -0.067071   0.430875
    11  O   -0.000273  -0.044320   0.219183   0.219350  -0.044425  -0.000179
    12  H    0.000873   0.000585  -0.013685   0.385139  -0.052495   0.011136
    13  H    0.011127  -0.052475   0.385145  -0.013691   0.000578   0.000876
               7          8          9         10         11         12
     1  C    0.430897  -0.066144   0.014040  -0.069675  -0.000273   0.000873
     2  C   -0.067067   0.438594  -0.001732   0.015320  -0.044320   0.000585
     3  C    0.013527  -0.074976   0.010097  -0.001536   0.219183  -0.013685
     4  C   -0.001539   0.010099  -0.074940   0.013521   0.219350   0.385139
     5  C    0.015323  -0.001734   0.438620  -0.067071  -0.044425  -0.052495
     6  C   -0.069706   0.014049  -0.066165   0.430875  -0.000179   0.011136
     7  H    0.715720  -0.015198  -0.000286  -0.012440  -0.000253   0.000009
     8  H   -0.015198   0.711623   0.000034  -0.000286   0.002066  -0.000077
     9  H   -0.000286   0.000034   0.711566  -0.015185   0.002063  -0.007649
    10  H   -0.012440  -0.000286  -0.015185   0.715704  -0.000252  -0.000369
    11  O   -0.000253   0.002066   0.002063  -0.000252   8.012012  -0.029350
    12  H    0.000009  -0.000077  -0.007649  -0.000369  -0.029350   0.699425
    13  H   -0.000369  -0.007647  -0.000077   0.000009  -0.029327  -0.004218
              13
     1  C    0.011127
     2  C   -0.052475
     3  C    0.385145
     4  C   -0.013691
     5  C    0.000578
     6  C    0.000876
     7  H   -0.000369
     8  H   -0.007647
     9  H   -0.000077
    10  H    0.000009
    11  O   -0.029327
    12  H   -0.004218
    13  H    0.699387
 Mulliken charges:
               1
     1  C    0.005793
     2  C    0.029828
     3  C    0.125804
     4  C    0.125794
     5  C    0.029885
     6  C    0.005852
     7  H   -0.008619
     8  H   -0.010403
     9  H   -0.010385
    10  H   -0.008614
    11  O   -0.306294
    12  H    0.010677
    13  H    0.010681
 Sum of Mulliken charges =   0.00000
 Mulliken charges with hydrogens summed into heavy atoms:
               1
     1  C   -0.002825
     2  C    0.019425
     3  C    0.136485
     4  C    0.136471
     5  C    0.019500
     6  C   -0.002762
    11  O   -0.306294
 Electronic spatial extent (au):  <R**2>=            580.5952
 Charge=              0.0000 electrons
 Dipole moment (field-independent basis, Debye):
    X=              0.8292    Y=             -0.0003    Z=             -1.6614  Tot=              1.8568
 Quadrupole moment (field-independent basis, Debye-Ang):
   XX=            -38.9325   YY=            -36.2569   ZZ=            -44.0670
   XY=              0.0012   XZ=              3.6566   YZ=              0.0000
 Traceless Quadrupole moment (field-independent basis, Debye-Ang):
   XX=              0.8197   YY=              3.4952   ZZ=             -4.3149
   XY=              0.0012   XZ=              3.6566   YZ=              0.0000
 Octapole moment (field-independent basis, Debye-Ang**2):
  XXX=              1.1957  YYY=              0.0029  ZZZ=              2.2599  XYY=             -2.6410
  XXY=             -0.0032  XXZ=             -2.0562  XZZ=             -3.0178  YZZ=              0.0004
  YYZ=             -1.5055  XYZ=              0.0002
 Hexadecapole moment (field-independent basis, Debye-Ang**3):
 XXXX=           -360.1396 YYYY=           -293.8218 ZZZZ=            -82.9316 XXXY=              0.0026
 XXXZ=              9.1701 YYYX=             -0.0014 YYYZ=              0.0005 ZZZX=             -2.3036
 ZZZY=              0.0021 XXYY=           -107.3892 XXZZ=            -80.5018 YYZZ=            -68.8169
 XXYZ=              0.0021 YYXZ=              0.7518 ZZXY=              0.0014
 N-N= 2.801109500012D+02 E-N=-1.274035310990D+03  KE= 3.040521364931D+02
 1\1\GINC-QC0019\FOpt\RB3LYP\SVP\C6H6O1\ELIOT\04-Oct-2018\0\\# b3lyp/sv
 p opt\\Title Card Required\\0,1\C,0.1902748283,0.0107188836,-0.2338408
 853\C,0.0479257098,-0.0951631465,1.1114696745\C,1.1599810442,0.2512211
 724,2.0095433522\C,2.3726633589,0.9281127857,1.3886082553\C,2.33566679
 12,1.1819488633,-0.0595625094\C,1.3469326031,0.6561327623,-0.825882607
 9\H,-0.6272793675,-0.2919378014,-0.8941181998\H,-0.9006473193,-0.41333
 36866,1.5521317848\H,3.1053485633,1.8226354035,-0.4980570299\H,1.35367
 22723,0.8133054643,-1.9081070691\O,2.393493373,-0.4300398973,1.8123090
 015\H,2.9829830234,1.5961126008,2.010952477\H,0.9252370293,0.447763586
 ,3.0641626159\\Version=ES64L-G09RevE.01\State=1-A\HF=-307.1727652\RMSD
 =2.905e-09\RMSF=2.733e-05\Dipole=-0.3961522,0.6025498,-0.116829\Quadru
 pole=0.4041087,-2.3202082,1.9160995,3.1777577,-0.8221184,0.8458089\PG=
 C01 [X(C6H6O1)]\\@


 RESEARCH IS WHAT I AM DOING WHEN I DON'T KNOW WHAT I AM DOING.
     -- WERNER VON BRAUN
 Job cpu time:       0 days  0 hours  5 minutes  9.0 seconds.
 File lengths (MBytes):  RWF=     13 Int=      0 D2E=      0 Chk=      2 Scr=      1
 Normal termination of Gaussian 09 at Thu Oct  4 09:17:48 2018.
