 Entering Gaussian System, Link 0=/home/eliot/software/g09E01/g09
 Initial command:
 /home/eliot/software/g09E01/l1.exe "/tmp/Gau-6291.inp" -scrdir="/tmp/"
 Entering Link 1 = /home/eliot/software/g09E01/l1.exe PID=      6293.
  
 Copyright (c) 1988,1990,1992,1993,1995,1998,2003,2009,2015,
            Gaussian, Inc.  All Rights Reserved.
  
 This is part of the Gaussian(R) 09 program.  It is based on
 the Gaussian(R) 03 system (copyright 2003, Gaussian, Inc.),
 the Gaussian(R) 98 system (copyright 1998, Gaussian, Inc.),
 the Gaussian(R) 94 system (copyright 1995, Gaussian, Inc.),
 the Gaussian 92(TM) system (copyright 1992, Gaussian, Inc.),
 the Gaussian 90(TM) system (copyright 1990, Gaussian, Inc.),
 the Gaussian 88(TM) system (copyright 1988, Gaussian, Inc.),
 the Gaussian 86(TM) system (copyright 1986, Carnegie Mellon
 University), and the Gaussian 82(TM) system (copyright 1983,
 Carnegie Mellon University). Gaussian is a federally registered
 trademark of Gaussian, Inc.
  
 This software contains proprietary and confidential information,
 including trade secrets, belonging to Gaussian, Inc.
  
 This software is provided under written license and may be
 used, copied, transmitted, or stored only in accord with that
 written license.
  
 The following legend is applicable only to US Government
 contracts under FAR:
  
                    RESTRICTED RIGHTS LEGEND
  
 Use, reproduction and disclosure by the US Government is
 subject to restrictions as set forth in subparagraphs (a)
 and (c) of the Commercial Computer Software - Restricted
 Rights clause in FAR 52.227-19.
  
 Gaussian, Inc.
 340 Quinnipiac St., Bldg. 40, Wallingford CT 06492
  
  
 ---------------------------------------------------------------
 Warning -- This program may not be used in any manner that
 competes with the business of Gaussian, Inc. or will provide
 assistance to any competitor of Gaussian, Inc.  The licensee
 of this program is prohibited from giving any competitor of
 Gaussian, Inc. access to this program.  By using this program,
 the user acknowledges that Gaussian, Inc. is engaged in the
 business of creating and licensing software in the field of
 computational chemistry and represents and warrants to the
 licensee that it is not a competitor of Gaussian, Inc. and that
 it will not use this program in any manner prohibited above.
 ---------------------------------------------------------------
  

 Cite this work as:
 Gaussian 09, Revision E.01,
 M. J. Frisch, G. W. Trucks, H. B. Schlegel, G. E. Scuseria, 
 M. A. Robb, J. R. Cheeseman, G. Scalmani, V. Barone, B. Mennucci, 
 G. A. Petersson, H. Nakatsuji, M. Caricato, X. Li, H. P. Hratchian, 
 A. F. Izmaylov, J. Bloino, G. Zheng, J. L. Sonnenberg, M. Hada, 
 M. Ehara, K. Toyota, R. Fukuda, J. Hasegawa, M. Ishida, T. Nakajima, 
 Y. Honda, O. Kitao, H. Nakai, T. Vreven, J. A. Montgomery, Jr., 
 J. E. Peralta, F. Ogliaro, M. Bearpark, J. J. Heyd, E. Brothers, 
 K. N. Kudin, V. N. Staroverov, T. Keith, R. Kobayashi, J. Normand, 
 K. Raghavachari, A. Rendell, J. C. Burant, S. S. Iyengar, J. Tomasi, 
 M. Cossi, N. Rega, J. M. Millam, M. Klene, J. E. Knox, J. B. Cross, 
 V. Bakken, C. Adamo, J. Jaramillo, R. Gomperts, R. E. Stratmann, 
 O. Yazyev, A. J. Austin, R. Cammi, C. Pomelli, J. W. Ochterski, 
 R. L. Martin, K. Morokuma, V. G. Zakrzewski, G. A. Voth, 
 P. Salvador, J. J. Dannenberg, S. Dapprich, A. D. Daniels, 
 O. Farkas, J. B. Foresman, J. V. Ortiz, J. Cioslowski, 
 and D. J. Fox, Gaussian, Inc., Wallingford CT, 2013.
 
 ******************************************
 Gaussian 09:  ES64L-G09RevE.01 30-Nov-2015
                 5-Oct-2018 
 ******************************************
 %nproc=1
 Will use up to    1 processors via shared memory.
 ---------------
 # opt hf/6-31g*
 ---------------
 1/18=20,19=15,38=1/1,3;
 2/9=110,12=2,17=6,18=5,40=1/2;
 3/5=1,6=6,7=1,11=9,16=1,25=1,30=1,71=1/1,2,3;
 4//1;
 5/5=2,38=5/2;
 6/7=2,8=2,9=2,10=2,28=1/1;
 7//1,2,3,16;
 1/18=20,19=15/3(2);
 2/9=110/2;
 99//99;
 2/9=110/2;
 3/5=1,6=6,7=1,11=9,16=1,25=1,30=1,71=1/1,2,3;
 4/5=5,16=3,69=1/1;
 5/5=2,38=5/2;
 7//1,2,3,16;
 1/18=20,19=15/3(-5);
 2/9=110/2;
 6/7=2,8=2,9=2,10=2,19=2,28=1/1;
 99/9=1/99;
 ----------
 benzox.log
 ----------
 Symbolic Z-matrix:
 Charge =  0 Multiplicity = 1
 C                     1.44025  -0.72567   0.12333 
 C                     0.32437  -1.43497  -0.18168 
 C                    -0.97577  -0.7605   -0.31547 
 C                    -0.97526   0.76079  -0.31544 
 C                     0.32503   1.43489  -0.18187 
 C                     1.44055   0.72517   0.12348 
 H                     2.39341  -1.24286   0.2646 
 H                     0.37532  -2.51256  -0.35892 
 H                     0.37613   2.51246  -0.35904 
 H                     2.39394   1.24188   0.26498 
 O                    -1.43286   0.0003    0.79666 
 H                    -1.77525   1.29079  -0.84944 
 H                    -1.77574  -1.29035  -0.84958 
 

 GradGradGradGradGradGradGradGradGradGradGradGradGradGradGradGradGradGrad
 Berny optimization.
 Initialization pass.
                           ----------------------------
                           !    Initial Parameters    !
                           ! (Angstroms and Degrees)  !
 --------------------------                            --------------------------
 ! Name  Definition              Value          Derivative Info.                !
 --------------------------------------------------------------------------------
 ! R1    R(1,2)                  1.357          estimate D2E/DX2                !
 ! R2    R(1,6)                  1.4508         estimate D2E/DX2                !
 ! R3    R(1,7)                  1.0936         estimate D2E/DX2                !
 ! R4    R(2,3)                  1.4708         estimate D2E/DX2                !
 ! R5    R(2,8)                  1.0933         estimate D2E/DX2                !
 ! R6    R(3,4)                  1.5213         estimate D2E/DX2                !
 ! R7    R(3,11)                 1.4229         estimate D2E/DX2                !
 ! R8    R(3,13)                 1.0982         estimate D2E/DX2                !
 ! R9    R(4,5)                  1.4707         estimate D2E/DX2                !
 ! R10   R(4,11)                 1.4229         estimate D2E/DX2                !
 ! R11   R(4,12)                 1.0982         estimate D2E/DX2                !
 ! R12   R(5,6)                  1.357          estimate D2E/DX2                !
 ! R13   R(5,9)                  1.0932         estimate D2E/DX2                !
 ! R14   R(6,10)                 1.0936         estimate D2E/DX2                !
 ! A1    A(2,1,6)              121.5275         estimate D2E/DX2                !
 ! A2    A(2,1,7)              119.9054         estimate D2E/DX2                !
 ! A3    A(6,1,7)              118.2118         estimate D2E/DX2                !
 ! A4    A(1,2,3)              120.5092         estimate D2E/DX2                !
 ! A5    A(1,2,8)              120.8866         estimate D2E/DX2                !
 ! A6    A(3,2,8)              118.5849         estimate D2E/DX2                !
 ! A7    A(2,3,4)              117.2764         estimate D2E/DX2                !
 ! A8    A(2,3,11)             117.2629         estimate D2E/DX2                !
 ! A9    A(2,3,13)             117.8352         estimate D2E/DX2                !
 ! A10   A(4,3,13)             118.8645         estimate D2E/DX2                !
 ! A11   A(11,3,13)            113.8357         estimate D2E/DX2                !
 ! A12   A(3,4,5)              117.2998         estimate D2E/DX2                !
 ! A13   A(3,4,12)             118.8393         estimate D2E/DX2                !
 ! A14   A(5,4,11)             117.2797         estimate D2E/DX2                !
 ! A15   A(5,4,12)             117.8398         estimate D2E/DX2                !
 ! A16   A(11,4,12)            113.8111         estimate D2E/DX2                !
 ! A17   A(4,5,6)              120.499          estimate D2E/DX2                !
 ! A18   A(4,5,9)              118.5802         estimate D2E/DX2                !
 ! A19   A(6,5,9)              120.9021         estimate D2E/DX2                !
 ! A20   A(1,6,5)              121.5223         estimate D2E/DX2                !
 ! A21   A(1,6,10)             118.2083         estimate D2E/DX2                !
 ! A22   A(5,6,10)             119.9122         estimate D2E/DX2                !
 ! D1    D(6,1,2,3)             -9.7082         estimate D2E/DX2                !
 ! D2    D(6,1,2,8)            168.668          estimate D2E/DX2                !
 ! D3    D(7,1,2,3)            177.2591         estimate D2E/DX2                !
 ! D4    D(7,1,2,8)             -4.3647         estimate D2E/DX2                !
 ! D5    D(2,1,6,5)             -0.0241         estimate D2E/DX2                !
 ! D6    D(2,1,6,10)          -173.1539         estimate D2E/DX2                !
 ! D7    D(7,1,6,5)            173.1227         estimate D2E/DX2                !
 ! D8    D(7,1,6,10)            -0.0071         estimate D2E/DX2                !
 ! D9    D(1,2,3,4)              9.3136         estimate D2E/DX2                !
 ! D10   D(1,2,3,11)           -56.4226         estimate D2E/DX2                !
 ! D11   D(1,2,3,13)           161.7453         estimate D2E/DX2                !
 ! D12   D(8,2,3,4)           -169.0995         estimate D2E/DX2                !
 ! D13   D(8,2,3,11)           125.1643         estimate D2E/DX2                !
 ! D14   D(8,2,3,13)           -16.6678         estimate D2E/DX2                !
 ! D15   D(2,3,4,5)              0.0094         estimate D2E/DX2                !
 ! D16   D(2,3,4,12)           152.1568         estimate D2E/DX2                !
 ! D17   D(13,3,4,5)          -152.1306         estimate D2E/DX2                !
 ! D18   D(13,3,4,12)            0.0168         estimate D2E/DX2                !
 ! D19   D(3,4,5,6)             -9.3395         estimate D2E/DX2                !
 ! D20   D(3,4,5,9)            169.1053         estimate D2E/DX2                !
 ! D21   D(11,4,5,6)            56.412          estimate D2E/DX2                !
 ! D22   D(11,4,5,9)          -125.1433         estimate D2E/DX2                !
 ! D23   D(12,4,5,6)          -161.77           estimate D2E/DX2                !
 ! D24   D(12,4,5,9)            16.6747         estimate D2E/DX2                !
 ! D25   D(4,5,6,1)              9.7468         estimate D2E/DX2                !
 ! D26   D(4,5,6,10)          -177.2385         estimate D2E/DX2                !
 ! D27   D(9,5,6,1)           -168.6615         estimate D2E/DX2                !
 ! D28   D(9,5,6,10)             4.3532         estimate D2E/DX2                !
 --------------------------------------------------------------------------------
 Trust Radius=3.00D-01 FncErr=1.00D-07 GrdErr=1.00D-07
 Number of steps in this run=     74 maximum allowed number of steps=    100.
 GradGradGradGradGradGradGradGradGradGradGradGradGradGradGradGradGradGrad

                          Input orientation:                          
 ---------------------------------------------------------------------
 Center     Atomic      Atomic             Coordinates (Angstroms)
 Number     Number       Type             X           Y           Z
 ---------------------------------------------------------------------
      1          6           0        1.440250   -0.725670    0.123330
      2          6           0        0.324370   -1.434970   -0.181680
      3          6           0       -0.975770   -0.760500   -0.315470
      4          6           0       -0.975260    0.760790   -0.315440
      5          6           0        0.325030    1.434890   -0.181870
      6          6           0        1.440550    0.725170    0.123480
      7          1           0        2.393410   -1.242860    0.264600
      8          1           0        0.375320   -2.512560   -0.358920
      9          1           0        0.376130    2.512460   -0.359040
     10          1           0        2.393940    1.241880    0.264980
     11          8           0       -1.432860    0.000300    0.796660
     12          1           0       -1.775250    1.290790   -0.849440
     13          1           0       -1.775740   -1.290350   -0.849580
 ---------------------------------------------------------------------
                    Distance matrix (angstroms):
                    1          2          3          4          5
     1  C    0.000000
     2  C    1.356955   0.000000
     3  C    2.455791   1.470773   0.000000
     4  C    2.869978   2.555052   1.521290   0.000000
     5  C    2.450486   2.869860   2.555321   1.470716   0.000000
     6  C    1.450840   2.450548   2.870278   2.455618   1.356955
     7  H    1.093598   2.125323   3.452612   3.962196   3.412899
     8  H    2.135326   1.093257   2.212927   3.541296   3.951739
     9  H    3.442458   3.951751   3.541440   2.212804   1.093233
    10  H    2.191082   3.412939   3.962498   3.452513   2.125398
    11  O    3.038942   2.470831   1.422878   1.422852   2.470981
    12  H    3.918141   3.504864   2.265410   1.098199   2.208527
    13  H    3.407053   2.208499   1.098165   2.265667   3.505140
                    6          7          8          9         10
     6  C    0.000000
     7  H    2.191118   0.000000
     8  H    3.442429   2.464468   0.000000
     9  H    2.135467   4.308222   5.025020   0.000000
    10  H    1.093601   2.484740   4.308120   2.464819   0.000000
    11  O    3.038930   4.058186   3.304443   3.304396   4.058153
    12  H    3.407032   5.003818   4.396707   2.522183   4.315839
    13  H    3.918378   4.315723   2.522222   4.396878   5.004065
                   11         12         13
    11  O    0.000000
    12  H    2.119491   0.000000
    13  H    2.119776   2.581140   0.000000
 Stoichiometry    C6H6O
 Framework group  C1[X(C6H6O)]
 Deg. of freedom    33
 Full point group                 C1      NOp   1
 Largest Abelian subgroup         C1      NOp   1
 Largest concise Abelian subgroup C1      NOp   1
                         Standard orientation:                         
 ---------------------------------------------------------------------
 Center     Atomic      Atomic             Coordinates (Angstroms)
 Number     Number       Type             X           Y           Z
 ---------------------------------------------------------------------
      1          6           0       -1.440258    0.725657    0.123330
      2          6           0       -0.324384    1.434967   -0.181680
      3          6           0        0.975762    0.760509   -0.315470
      4          6           0        0.975266   -0.760781   -0.315440
      5          6           0       -0.325018   -1.434893   -0.181870
      6          6           0       -1.440544   -0.725183    0.123480
      7          1           0       -2.393422    1.242839    0.264600
      8          1           0       -0.375344    2.512557   -0.358920
      9          1           0       -0.376108   -2.512463   -0.359040
     10          1           0       -2.393930   -1.241901    0.264980
     11          8           0        1.432859   -0.000287    0.796660
     12          1           0        1.775261   -1.290774   -0.849440
     13          1           0        1.775727    1.290366   -0.849580
 ---------------------------------------------------------------------
 Rotational constants (GHZ):      4.5735044      3.5674010      2.2825095
 Standard basis: 6-31G(d) (6D, 7F)
 There are   117 symmetry adapted cartesian basis functions of A   symmetry.
 There are   117 symmetry adapted basis functions of A   symmetry.
   117 basis functions,   220 primitive gaussians,   117 cartesian basis functions
    25 alpha electrons       25 beta electrons
       nuclear repulsion energy       280.1111495346 Hartrees.
 NAtoms=   13 NActive=   13 NUniq=   13 SFac= 1.00D+00 NAtFMM=   60 NAOKFM=F Big=F
 Integral buffers will be    131072 words long.
 Raffenetti 1 integral format.
 Two-electron integral symmetry is turned on.
 One-electron integrals computed using PRISM.
 NBasis=   117 RedAO= T EigKep=  6.50D-04  NBF=   117
 NBsUse=   117 1.00D-06 EigRej= -1.00D+00 NBFU=   117
 ExpMin= 1.61D-01 ExpMax= 5.48D+03 ExpMxC= 8.25D+02 IAcc=1 IRadAn=         1 AccDes= 0.00D+00
 Harris functional with IExCor=  205 and IRadAn=       1 diagonalized for initial guess.
 HarFok:  IExCor=  205 AccDes= 0.00D+00 IRadAn=         1 IDoV= 1 UseB2=F ITyADJ=14
 ICtDFT=  3500011 ScaDFX=  1.000000  1.000000  1.000000  1.000000
 FoFCou: FMM=F IPFlag=           0 FMFlag=      100000 FMFlg1=           0
         NFxFlg=           0 DoJE=T BraDBF=F KetDBF=T FulRan=T
         wScrn=  0.000000 ICntrl=     500 IOpCl=  0 I1Cent=   200000004 NGrid=           0
         NMat0=    1 NMatS0=      1 NMatT0=    0 NMatD0=    1 NMtDS0=    0 NMtDT0=    0
 Petite list used in FoFCou.
 Keep R1 ints in memory in canonical form, NReq=24776465.
 Requested convergence on RMS density matrix=1.00D-08 within 128 cycles.
 Requested convergence on MAX density matrix=1.00D-06.
 Requested convergence on             energy=1.00D-06.
 No special actions if energy rises.
 SCF Done:  E(RHF) =  -305.480462056     A.U. after   13 cycles
            NFock= 13  Conv=0.61D-08     -V/T= 2.0025

 **********************************************************************

            Population analysis using the SCF density.

 **********************************************************************

 Orbital symmetries:
       Occupied  (A) (A) (A) (A) (A) (A) (A) (A) (A) (A) (A) (A)
                 (A) (A) (A) (A) (A) (A) (A) (A) (A) (A) (A) (A)
                 (A)
       Virtual   (A) (A) (A) (A) (A) (A) (A) (A) (A) (A) (A) (A)
                 (A) (A) (A) (A) (A) (A) (A) (A) (A) (A) (A) (A)
                 (A) (A) (A) (A) (A) (A) (A) (A) (A) (A) (A) (A)
                 (A) (A) (A) (A) (A) (A) (A) (A) (A) (A) (A) (A)
                 (A) (A) (A) (A) (A) (A) (A) (A) (A) (A) (A) (A)
                 (A) (A) (A) (A) (A) (A) (A) (A) (A) (A) (A) (A)
                 (A) (A) (A) (A) (A) (A) (A) (A) (A) (A) (A) (A)
                 (A) (A) (A) (A) (A) (A) (A) (A)
 The electronic state is 1-A.
 Alpha  occ. eigenvalues --  -20.57521 -11.29600 -11.29539 -11.24590 -11.24510
 Alpha  occ. eigenvalues --  -11.24208 -11.24206  -1.41661  -1.11244  -1.02417
 Alpha  occ. eigenvalues --   -0.94442  -0.85654  -0.81224  -0.72380  -0.67800
 Alpha  occ. eigenvalues --   -0.64810  -0.63008  -0.59940  -0.55314  -0.52546
 Alpha  occ. eigenvalues --   -0.50810  -0.48888  -0.44065  -0.38552  -0.31718
 Alpha virt. eigenvalues --    0.10396   0.20705   0.22550   0.28040   0.28219
 Alpha virt. eigenvalues --    0.31369   0.31655   0.32941   0.37217   0.37401
 Alpha virt. eigenvalues --    0.45099   0.45794   0.46773   0.49315   0.65257
 Alpha virt. eigenvalues --    0.68418   0.72083   0.73344   0.76312   0.77811
 Alpha virt. eigenvalues --    0.80577   0.82520   0.82595   0.83553   0.84607
 Alpha virt. eigenvalues --    0.86938   0.87428   0.91778   0.95761   1.07103
 Alpha virt. eigenvalues --    1.08004   1.09922   1.10311   1.11693   1.12586
 Alpha virt. eigenvalues --    1.12987   1.17280   1.19681   1.20044   1.21999
 Alpha virt. eigenvalues --    1.27321   1.28668   1.31818   1.39240   1.42843
 Alpha virt. eigenvalues --    1.48828   1.49551   1.66243   1.67228   1.72532
 Alpha virt. eigenvalues --    1.75696   1.79781   1.81979   1.82065   1.83541
 Alpha virt. eigenvalues --    2.03017   2.04995   2.14839   2.19121   2.19181
 Alpha virt. eigenvalues --    2.21200   2.28569   2.29740   2.31918   2.38125
 Alpha virt. eigenvalues --    2.41545   2.47936   2.53070   2.53841   2.57436
 Alpha virt. eigenvalues --    2.61865   2.65304   2.81607   2.82276   2.86727
 Alpha virt. eigenvalues --    2.91248   2.92975   2.98099   3.03146   3.04946
 Alpha virt. eigenvalues --    3.09442   3.25683   3.29869   3.34545   3.62788
 Alpha virt. eigenvalues --    4.22627   4.52293   4.56625   4.60718   4.79659
 Alpha virt. eigenvalues --    4.82058   5.09910
          Condensed to atoms (all electrons):
               1          2          3          4          5          6
     1  C    4.900970   0.648577  -0.042829  -0.013780  -0.053719   0.428735
     2  C    0.648577   4.976551   0.393728  -0.037519  -0.019609  -0.053715
     3  C   -0.042829   0.393728   4.835912   0.329349  -0.037453  -0.013792
     4  C   -0.013780  -0.037519   0.329349   4.835832   0.393741  -0.042867
     5  C   -0.053719  -0.019609  -0.037453   0.393741   4.976590   0.648534
     6  C    0.428735  -0.053715  -0.013792  -0.042867   0.648534   4.900963
     7  H    0.383336  -0.028517   0.002384   0.000182   0.002341  -0.032668
     8  H   -0.027942   0.381104  -0.032525   0.001769   0.000038   0.002412
     9  H    0.002411   0.000038   0.001769  -0.032531   0.381112  -0.027926
    10  H   -0.032673   0.002341   0.000181   0.002384  -0.028511   0.383330
    11  O    0.000571  -0.046010   0.144613   0.144625  -0.046020   0.000592
    12  H    0.000166   0.000745  -0.015130   0.391685  -0.040623   0.003071
    13  H    0.003066  -0.040613   0.391656  -0.015104   0.000741   0.000167
               7          8          9         10         11         12
     1  C    0.383336  -0.027942   0.002411  -0.032673   0.000571   0.000166
     2  C   -0.028517   0.381104   0.000038   0.002341  -0.046010   0.000745
     3  C    0.002384  -0.032525   0.001769   0.000181   0.144613  -0.015130
     4  C    0.000182   0.001769  -0.032531   0.002384   0.144625   0.391685
     5  C    0.002341   0.000038   0.381112  -0.028511  -0.046020  -0.040623
     6  C   -0.032668   0.002412  -0.027926   0.383330   0.000592   0.003071
     7  H    0.472617  -0.001885  -0.000093  -0.001268  -0.000051   0.000004
     8  H   -0.001885   0.469422   0.000008  -0.000093   0.000851  -0.000032
     9  H   -0.000093   0.000008   0.469371  -0.001884   0.000849  -0.000430
    10  H   -0.001268  -0.000093  -0.001884   0.472620  -0.000051  -0.000090
    11  O   -0.000051   0.000851   0.000849  -0.000051   8.405411  -0.028241
    12  H    0.000004  -0.000032  -0.000430  -0.000090  -0.028241   0.494123
    13  H   -0.000090  -0.000426  -0.000032   0.000004  -0.028207  -0.000477
              13
     1  C    0.003066
     2  C   -0.040613
     3  C    0.391656
     4  C   -0.015104
     5  C    0.000741
     6  C    0.000167
     7  H   -0.000090
     8  H   -0.000426
     9  H   -0.000032
    10  H    0.000004
    11  O   -0.028207
    12  H   -0.000477
    13  H    0.494045
 Mulliken charges:
               1
     1  C   -0.196890
     2  C   -0.177103
     3  C    0.042137
     4  C    0.042234
     5  C   -0.177162
     6  C   -0.196838
     7  H    0.203708
     8  H    0.207301
     9  H    0.207338
    10  H    0.203707
    11  O   -0.548933
    12  H    0.195229
    13  H    0.195272
 Sum of Mulliken charges =   0.00000
 Mulliken charges with hydrogens summed into heavy atoms:
               1
     1  C    0.006819
     2  C    0.030198
     3  C    0.237409
     4  C    0.237463
     5  C    0.030176
     6  C    0.006869
    11  O   -0.548933
 Electronic spatial extent (au):  <R**2>=            580.3466
 Charge=              0.0000 electrons
 Dipole moment (field-independent basis, Debye):
    X=             -1.1275    Y=              0.0003    Z=             -2.0572  Tot=              2.3459
 Quadrupole moment (field-independent basis, Debye-Ang):
   XX=            -38.6930   YY=            -35.4133   ZZ=            -44.8166
   XY=              0.0015   XZ=             -4.4848   YZ=              0.0000
 Traceless Quadrupole moment (field-independent basis, Debye-Ang):
   XX=              0.9480   YY=              4.2276   ZZ=             -5.1756
   XY=              0.0015   XZ=             -4.4848   YZ=              0.0000
 Octapole moment (field-independent basis, Debye-Ang**2):
  XXX=             -4.1851  YYY=             -0.0029  ZZZ=              1.5083  XYY=              2.6726
  XXY=              0.0039  XXZ=             -2.8613  XZZ=              3.1272  YZZ=             -0.0004
  YYZ=             -2.5691  XYZ=              0.0002
 Hexadecapole moment (field-independent basis, Debye-Ang**3):
 XXXX=           -353.8105 YYYY=           -283.3638 ZZZZ=            -83.4769 XXXY=              0.0037
 XXXZ=            -13.2272 YYYX=             -0.0007 YYYZ=             -0.0006 ZZZX=              0.8280
 ZZZY=             -0.0021 XXYY=           -104.7908 XXZZ=            -80.8859 YYZZ=            -68.6191
 XXYZ=             -0.0024 YYXZ=             -1.8391 ZZXY=              0.0017
 N-N= 2.801111495346D+02 E-N=-1.274302191444D+03  KE= 3.047318532867D+02
 Calling FoFJK, ICntrl=      2127 FMM=F ISym2X=0 I1Cent= 0 IOpClX= 0 NMat=1 NMatS=1 NMatT=0.
 ***** Axes restored to original set *****
 -------------------------------------------------------------------
 Center     Atomic                   Forces (Hartrees/Bohr)
 Number     Number              X              Y              Z
 -------------------------------------------------------------------
      1        6          -0.012065808   -0.023613368   -0.005169455
      2        6           0.022698042    0.001994071    0.005878781
      3        6          -0.013088353    0.018298459   -0.000699631
      4        6          -0.013274368   -0.018278673   -0.000783056
      5        6           0.022689674   -0.002040748    0.005952442
      6        6          -0.012022710    0.023616325   -0.005226044
      7        1          -0.011570696    0.006090251   -0.002173843
      8        1          -0.000495655    0.012754232    0.003308594
      9        1          -0.000478784   -0.012743833    0.003305499
     10        1          -0.011578032   -0.006076150   -0.002184541
     11        8           0.007819738   -0.000020042   -0.020128481
     12        1           0.010703222   -0.007429717    0.008955958
     13        1           0.010663730    0.007449192    0.008963777
 -------------------------------------------------------------------
 Cartesian Forces:  Max     0.023616325 RMS     0.011602269

 GradGradGradGradGradGradGradGradGradGradGradGradGradGradGradGradGradGrad
 Berny optimization.
 FormGI is forming the generalized inverse of G from B-inverse, IUseBI=4.
 Internal  Forces:  Max     0.028588742 RMS     0.007443863
 Search for a local minimum.
 Step number   1 out of a maximum of   74
 All quantities printed in internal units (Hartrees-Bohrs-Radians)
 Mixed Optimization -- RFO/linear search
 Second derivative matrix not updated -- first step.
 ITU=  0
     Eigenvalues ---    0.01541   0.01542   0.01798   0.01898   0.02019
     Eigenvalues ---    0.02292   0.02293   0.02789   0.02902   0.14020
     Eigenvalues ---    0.14761   0.15859   0.15918   0.15993   0.15994
     Eigenvalues ---    0.17949   0.18020   0.21783   0.21898   0.26479
     Eigenvalues ---    0.30700   0.33882   0.33886   0.34353   0.34400
     Eigenvalues ---    0.34400   0.34439   0.34442   0.35173   0.37343
     Eigenvalues ---    0.40128   0.51110   0.52653
 RFO step:  Lambda=-8.75273574D-03 EMin= 1.54051928D-02
 Linear search not attempted -- first point.
 Iteration  1 RMS(Cart)=  0.02516355 RMS(Int)=  0.00023790
 Iteration  2 RMS(Cart)=  0.00027999 RMS(Int)=  0.00007451
 Iteration  3 RMS(Cart)=  0.00000005 RMS(Int)=  0.00007451
 Variable       Old X    -DE/DX   Delta X   Delta X   Delta X     New X
                                 (Linear)    (Quad)   (Total)
    R1        2.56427  -0.02859   0.00000  -0.05288  -0.05289   2.51138
    R2        2.74169   0.00317   0.00000   0.00715   0.00712   2.74881
    R3        2.06660  -0.01325   0.00000  -0.03755  -0.03755   2.02905
    R4        2.77936  -0.00128   0.00000  -0.00302  -0.00301   2.77635
    R5        2.06596  -0.01313   0.00000  -0.03718  -0.03718   2.02877
    R6        2.87482  -0.01802   0.00000  -0.05692  -0.05692   2.81790
    R7        2.68885  -0.01346   0.00000  -0.03131  -0.03130   2.65755
    R8        2.07523  -0.01572   0.00000  -0.04523  -0.04523   2.03000
    R9        2.77925  -0.00126   0.00000  -0.00295  -0.00294   2.77631
   R10        2.68880  -0.01346   0.00000  -0.03125  -0.03123   2.65757
   R11        2.07529  -0.01574   0.00000  -0.04528  -0.04528   2.03002
   R12        2.56427  -0.02859   0.00000  -0.05287  -0.05288   2.51139
   R13        2.06591  -0.01312   0.00000  -0.03715  -0.03715   2.02876
   R14        2.06661  -0.01325   0.00000  -0.03755  -0.03755   2.02905
    A1        2.12106   0.00093   0.00000   0.00152   0.00140   2.12245
    A2        2.09274  -0.00072   0.00000  -0.00182  -0.00178   2.09096
    A3        2.06318  -0.00019   0.00000   0.00145   0.00149   2.06467
    A4        2.10328  -0.00014   0.00000  -0.00127  -0.00134   2.10194
    A5        2.10987  -0.00027   0.00000  -0.00137  -0.00134   2.10853
    A6        2.06970   0.00040   0.00000   0.00252   0.00255   2.07225
    A7        2.04686  -0.00067   0.00000   0.00383   0.00369   2.05055
    A8        2.04662  -0.00080   0.00000  -0.00841  -0.00851   2.03812
    A9        2.05661   0.00056   0.00000   0.00180   0.00155   2.05816
   A10        2.07458   0.00060   0.00000   0.00868   0.00857   2.08314
   A11        1.98681  -0.00067   0.00000  -0.01459  -0.01474   1.97207
   A12        2.04727  -0.00073   0.00000   0.00357   0.00342   2.05069
   A13        2.07414   0.00065   0.00000   0.00895   0.00883   2.08297
   A14        2.04692  -0.00083   0.00000  -0.00855  -0.00865   2.03826
   A15        2.05669   0.00056   0.00000   0.00176   0.00150   2.05820
   A16        1.98638  -0.00064   0.00000  -0.01433  -0.01448   1.97190
   A17        2.10310  -0.00012   0.00000  -0.00114  -0.00121   2.10189
   A18        2.06962   0.00041   0.00000   0.00256   0.00259   2.07221
   A19        2.11014  -0.00030   0.00000  -0.00155  -0.00152   2.10862
   A20        2.12096   0.00094   0.00000   0.00157   0.00144   2.12241
   A21        2.06312  -0.00018   0.00000   0.00151   0.00155   2.06467
   A22        2.09286  -0.00073   0.00000  -0.00189  -0.00185   2.09101
    D1       -0.16944   0.00065   0.00000   0.02866   0.02866  -0.14078
    D2        2.94381   0.00052   0.00000   0.02368   0.02368   2.96749
    D3        3.09376   0.00050   0.00000   0.01729   0.01729   3.11105
    D4       -0.07618   0.00037   0.00000   0.01231   0.01231  -0.06386
    D5       -0.00042   0.00001   0.00000   0.00038   0.00038  -0.00004
    D6       -3.02211  -0.00011   0.00000  -0.01094  -0.01095  -3.03306
    D7        3.02156   0.00012   0.00000   0.01135   0.01136   3.03292
    D8       -0.00012   0.00000   0.00000   0.00003   0.00003  -0.00010
    D9        0.16255  -0.00077   0.00000  -0.02744  -0.02746   0.13509
   D10       -0.98476  -0.00122   0.00000  -0.03200  -0.03193  -1.01669
   D11        2.82299   0.00041   0.00000   0.00546   0.00541   2.82839
   D12       -2.95134  -0.00064   0.00000  -0.02251  -0.02253  -2.97387
   D13        2.18453  -0.00109   0.00000  -0.02707  -0.02700   2.15753
   D14       -0.29091   0.00054   0.00000   0.01038   0.01034  -0.28057
   D15        0.00016  -0.00001   0.00000  -0.00006  -0.00006   0.00011
   D16        2.65564   0.00117   0.00000   0.03111   0.03118   2.68682
   D17       -2.65518  -0.00119   0.00000  -0.03134  -0.03140  -2.68658
   D18        0.00029  -0.00001   0.00000  -0.00016  -0.00016   0.00013
   D19       -0.16300   0.00079   0.00000   0.02771   0.02773  -0.13527
   D20        2.95144   0.00065   0.00000   0.02243   0.02244   2.97389
   D21        0.98458   0.00120   0.00000   0.03208   0.03201   1.01659
   D22       -2.18416   0.00106   0.00000   0.02680   0.02673  -2.15744
   D23       -2.82342  -0.00041   0.00000  -0.00518  -0.00513  -2.82855
   D24        0.29103  -0.00055   0.00000  -0.01046  -0.01041   0.28062
   D25        0.17011  -0.00066   0.00000  -0.02923  -0.02922   0.14089
   D26       -3.09340  -0.00050   0.00000  -0.01748  -0.01749  -3.11088
   D27       -2.94370  -0.00053   0.00000  -0.02389  -0.02389  -2.96759
   D28        0.07598  -0.00037   0.00000  -0.01214  -0.01215   0.06382
         Item               Value     Threshold  Converged?
 Maximum Force            0.028589     0.000450     NO 
 RMS     Force            0.007444     0.000300     NO 
 Maximum Displacement     0.062647     0.001800     NO 
 RMS     Displacement     0.025265     0.001200     NO 
 Predicted change in Energy=-4.522498D-03
 GradGradGradGradGradGradGradGradGradGradGradGradGradGradGradGradGradGrad

                          Input orientation:                          
 ---------------------------------------------------------------------
 Center     Atomic      Atomic             Coordinates (Angstroms)
 Number     Number       Type             X           Y           Z
 ---------------------------------------------------------------------
      1          6           0        1.425107   -0.727572    0.111319
      2          6           0        0.329796   -1.423854   -0.174397
      3          6           0       -0.964239   -0.745427   -0.328345
      4          6           0       -0.963888    0.745743   -0.328305
      5          6           0        0.330370    1.423726   -0.174473
      6          6           0        1.425411    0.727038    0.111306
      7          1           0        2.360283   -1.236759    0.249400
      8          1           0        0.377291   -2.485470   -0.327008
      9          1           0        0.378157    2.485329   -0.327043
     10          1           0        2.360789    1.235833    0.249471
     11          8           0       -1.423506    0.000226    0.772016
     12          1           0       -1.750501    1.272399   -0.836106
     13          1           0       -1.750952   -1.271842   -0.836225
 ---------------------------------------------------------------------
                    Distance matrix (angstroms):
                    1          2          3          4          5
     1  C    0.000000
     2  C    1.328965   0.000000
     3  C    2.429526   1.469180   0.000000
     4  C    2.840991   2.530703   1.491171   0.000000
     5  C    2.430681   2.847580   2.530793   1.469159   0.000000
     6  C    1.454610   2.430706   2.841104   2.429477   1.328969
     7  H    1.073728   2.082663   3.409933   3.913333   3.373187
     8  H    2.092905   1.073580   2.197147   3.498500   3.912452
     9  H    3.407492   3.912461   3.498545   2.197099   1.073575
    10  H    2.179346   3.373208   3.913447   3.409910   2.082698
    11  O    3.013438   2.449035   1.406314   1.406325   2.449137
    12  H    3.870658   3.469190   2.224332   1.074239   2.188763
    13  H    3.358783   2.188752   1.074231   2.224433   3.469280
                    6          7          8          9         10
     6  C    0.000000
     7  H    2.179347   0.000000
     8  H    3.407474   2.413251   0.000000
     9  H    2.092960   4.256178   4.970799   0.000000
    10  H    1.073729   2.472592   4.256135   2.413387   0.000000
    11  O    3.013490   4.015012   3.260278   3.260315   4.015054
    12  H    3.358784   4.936876   4.348363   2.502305   4.252354
    13  H    3.870739   4.252301   2.502321   4.348414   4.936961
                   11         12         13
    11  O    0.000000
    12  H    2.076393   0.000000
    13  H    2.076492   2.544242   0.000000
 Stoichiometry    C6H6O
 Framework group  C1[X(C6H6O)]
 Deg. of freedom    33
 Full point group                 C1      NOp   1
 Largest Abelian subgroup         C1      NOp   1
 Largest concise Abelian subgroup C1      NOp   1
                         Standard orientation:                         
 ---------------------------------------------------------------------
 Center     Atomic      Atomic             Coordinates (Angstroms)
 Number     Number       Type             X           Y           Z
 ---------------------------------------------------------------------
      1          6           0       -1.423672    0.727432    0.116497
      2          6           0       -0.328065    1.423808   -0.167849
      3          6           0        0.966223    0.745494   -0.320163
      4          6           0        0.966005   -0.745676   -0.320108
      5          6           0       -0.328386   -1.423772   -0.167897
      6          6           0       -1.423847   -0.727178    0.116499
      7          1           0       -2.359066    1.236536    0.253397
      8          1           0       -0.375462    2.485418   -0.320530
      9          1           0       -0.375886   -2.485382   -0.320516
     10          1           0       -2.359352   -1.236056    0.253492
     11          8           0        1.424173   -0.000107    0.780783
     12          1           0        1.753303   -1.272268   -0.826915
     13          1           0        1.753527    1.271974   -0.827059
 ---------------------------------------------------------------------
 Rotational constants (GHZ):      4.6688027      3.6454341      2.3251499
 Standard basis: 6-31G(d) (6D, 7F)
 There are   117 symmetry adapted cartesian basis functions of A   symmetry.
 There are   117 symmetry adapted basis functions of A   symmetry.
   117 basis functions,   220 primitive gaussians,   117 cartesian basis functions
    25 alpha electrons       25 beta electrons
       nuclear repulsion energy       283.2553332965 Hartrees.
 NAtoms=   13 NActive=   13 NUniq=   13 SFac= 1.00D+00 NAtFMM=   60 NAOKFM=F Big=F
 Integral buffers will be    131072 words long.
 Raffenetti 1 integral format.
 Two-electron integral symmetry is turned on.
 One-electron integrals computed using PRISM.
 NBasis=   117 RedAO= T EigKep=  5.69D-04  NBF=   117
 NBsUse=   117 1.00D-06 EigRej= -1.00D+00 NBFU=   117
 Initial guess from the checkpoint file:  "/tmp/Gau-6293.chk"
 B after Tr=     0.000000    0.000000    0.000000
         Rot=    1.000000    0.000010   -0.000842   -0.000045 Ang=   0.10 deg.
 ExpMin= 1.61D-01 ExpMax= 5.48D+03 ExpMxC= 8.25D+02 IAcc=1 IRadAn=         1 AccDes= 0.00D+00
 Harris functional with IExCor=  205 and IRadAn=       1 diagonalized for initial guess.
 HarFok:  IExCor=  205 AccDes= 0.00D+00 IRadAn=         1 IDoV= 1 UseB2=F ITyADJ=14
 ICtDFT=  3500011 ScaDFX=  1.000000  1.000000  1.000000  1.000000
 FoFCou: FMM=F IPFlag=           0 FMFlag=      100000 FMFlg1=           0
         NFxFlg=           0 DoJE=T BraDBF=F KetDBF=T FulRan=T
         wScrn=  0.000000 ICntrl=     500 IOpCl=  0 I1Cent=   200000004 NGrid=           0
         NMat0=    1 NMatS0=      1 NMatT0=    0 NMatD0=    1 NMtDS0=    0 NMtDT0=    0
 Petite list used in FoFCou.
 Keep R1 ints in memory in canonical form, NReq=24776789.
 Requested convergence on RMS density matrix=1.00D-08 within 128 cycles.
 Requested convergence on MAX density matrix=1.00D-06.
 Requested convergence on             energy=1.00D-06.
 No special actions if energy rises.
 SCF Done:  E(RHF) =  -305.484758648     A.U. after   11 cycles
            NFock= 11  Conv=0.74D-08     -V/T= 2.0009
 Calling FoFJK, ICntrl=      2127 FMM=F ISym2X=0 I1Cent= 0 IOpClX= 0 NMat=1 NMatS=1 NMatT=0.
 ***** Axes restored to original set *****
 -------------------------------------------------------------------
 Center     Atomic                   Forces (Hartrees/Bohr)
 Number     Number              X              Y              Z
 -------------------------------------------------------------------
      1        6           0.001416441   -0.003574013   -0.000184377
      2        6           0.002182260   -0.001876380   -0.000581987
      3        6          -0.004485445    0.008128357    0.001602274
      4        6          -0.004551521   -0.008132445    0.001575194
      5        6           0.002185487    0.001863666   -0.000555182
      6        6           0.001413381    0.003575520   -0.000185594
      7        1           0.001690132   -0.000041249    0.000336469
      8        1          -0.000671948   -0.001690905    0.000942124
      9        1          -0.000663735    0.001692636    0.000938811
     10        1           0.001688562    0.000042462    0.000330558
     11        8           0.000950352    0.000002441   -0.000628957
     12        1          -0.000569789    0.001023147   -0.001796246
     13        1          -0.000584179   -0.001013237   -0.001793086
 -------------------------------------------------------------------
 Cartesian Forces:  Max     0.008132445 RMS     0.002530327

 GradGradGradGradGradGradGradGradGradGradGradGradGradGradGradGradGradGrad
 Berny optimization.
 Using GEDIIS/GDIIS optimizer.
 FormGI is forming the generalized inverse of G from B-inverse, IUseBI=4.
 Internal  Forces:  Max     0.005315986 RMS     0.001482815
 Search for a local minimum.
 Step number   2 out of a maximum of   74
 All quantities printed in internal units (Hartrees-Bohrs-Radians)
 Mixed Optimization -- RFO/linear search
 Update second derivatives using D2CorX and points    1    2
 DE= -4.30D-03 DEPred=-4.52D-03 R= 9.50D-01
 TightC=F SS=  1.41D+00  RLast= 1.83D-01 DXNew= 5.0454D-01 5.4941D-01
 Trust test= 9.50D-01 RLast= 1.83D-01 DXMaxT set to 5.05D-01
 ITU=  1  0
 Use linear search instead of GDIIS.
     Eigenvalues ---    0.01505   0.01542   0.01793   0.01891   0.02015
     Eigenvalues ---    0.02284   0.02285   0.02789   0.02948   0.14232
     Eigenvalues ---    0.14874   0.15883   0.15936   0.15992   0.15997
     Eigenvalues ---    0.17872   0.17944   0.21808   0.21928   0.25174
     Eigenvalues ---    0.30416   0.33094   0.33884   0.34119   0.34326
     Eigenvalues ---    0.34400   0.34421   0.34440   0.36183   0.38205
     Eigenvalues ---    0.40722   0.51106   0.57802
 RFO step:  Lambda=-5.65982437D-04 EMin= 1.50521918D-02
 Quartic linear search produced a step of -0.03889.
 Iteration  1 RMS(Cart)=  0.01369711 RMS(Int)=  0.00014449
 Iteration  2 RMS(Cart)=  0.00016648 RMS(Int)=  0.00002653
 Iteration  3 RMS(Cart)=  0.00000002 RMS(Int)=  0.00002653
 Variable       Old X    -DE/DX   Delta X   Delta X   Delta X     New X
                                 (Linear)    (Quad)   (Total)
    R1        2.51138   0.00311   0.00206   0.00046   0.00253   2.51391
    R2        2.74881   0.00460  -0.00028   0.01252   0.01225   2.76107
    R3        2.02905   0.00153   0.00146   0.00055   0.00201   2.03106
    R4        2.77635   0.00531   0.00012   0.01387   0.01398   2.79033
    R5        2.02877   0.00151   0.00145   0.00051   0.00196   2.03073
    R6        2.81790  -0.00354   0.00221  -0.01917  -0.01697   2.80094
    R7        2.65755  -0.00092   0.00122  -0.00445  -0.00324   2.65431
    R8        2.03000   0.00177   0.00176   0.00052   0.00228   2.03229
    R9        2.77631   0.00532   0.00011   0.01389   0.01400   2.79031
   R10        2.65757  -0.00093   0.00121  -0.00445  -0.00324   2.65433
   R11        2.03002   0.00177   0.00176   0.00051   0.00227   2.03229
   R12        2.51139   0.00311   0.00206   0.00046   0.00252   2.51391
   R13        2.02876   0.00151   0.00144   0.00052   0.00196   2.03073
   R14        2.02905   0.00153   0.00146   0.00055   0.00201   2.03106
    A1        2.12245  -0.00086  -0.00005  -0.00183  -0.00194   2.12051
    A2        2.09096   0.00122   0.00007   0.00635   0.00637   2.09732
    A3        2.06467  -0.00034  -0.00006  -0.00266  -0.00277   2.06190
    A4        2.10194   0.00030   0.00005   0.00184   0.00185   2.10380
    A5        2.10853   0.00037   0.00005   0.00218   0.00223   2.11075
    A6        2.07225  -0.00066  -0.00010  -0.00372  -0.00382   2.06842
    A7        2.05055   0.00058  -0.00014   0.00240   0.00221   2.05276
    A8        2.03812  -0.00064   0.00033  -0.00040  -0.00008   2.03804
    A9        2.05816  -0.00061  -0.00006  -0.00424  -0.00429   2.05387
   A10        2.08314  -0.00009  -0.00033  -0.00154  -0.00186   2.08128
   A11        1.97207   0.00079   0.00057   0.00573   0.00631   1.97838
   A12        2.05069   0.00056  -0.00013   0.00230   0.00212   2.05281
   A13        2.08297  -0.00007  -0.00034  -0.00142  -0.00174   2.08123
   A14        2.03826  -0.00065   0.00034  -0.00053  -0.00020   2.03807
   A15        2.05820  -0.00061  -0.00006  -0.00427  -0.00431   2.05389
   A16        1.97190   0.00080   0.00056   0.00587   0.00644   1.97833
   A17        2.10189   0.00030   0.00005   0.00188   0.00189   2.10379
   A18        2.07221  -0.00066  -0.00010  -0.00369  -0.00380   2.06841
   A19        2.10862   0.00036   0.00006   0.00210   0.00215   2.11078
   A20        2.12241  -0.00086  -0.00006  -0.00180  -0.00191   2.12050
   A21        2.06467  -0.00034  -0.00006  -0.00265  -0.00276   2.06191
   A22        2.09101   0.00121   0.00007   0.00630   0.00633   2.09734
    D1       -0.14078   0.00017  -0.00111   0.02053   0.01941  -0.12138
    D2        2.96749   0.00036  -0.00092   0.03125   0.03034   2.99783
    D3        3.11105   0.00001  -0.00067   0.00068  -0.00003   3.11101
    D4       -0.06386   0.00021  -0.00048   0.01140   0.01090  -0.05297
    D5       -0.00004   0.00000  -0.00001   0.00009   0.00008   0.00004
    D6       -3.03306  -0.00025   0.00043  -0.01999  -0.01950  -3.05255
    D7        3.03292   0.00025  -0.00044   0.02020   0.01970   3.05262
    D8       -0.00010   0.00000   0.00000   0.00012   0.00012   0.00003
    D9        0.13509  -0.00004   0.00107  -0.01936  -0.01833   0.11676
   D10       -1.01669  -0.00068   0.00124  -0.02375  -0.02253  -1.03922
   D11        2.82839  -0.00035  -0.00021  -0.02756  -0.02778   2.80061
   D12       -2.97387  -0.00026   0.00088  -0.02997  -0.02911  -3.00298
   D13        2.15753  -0.00089   0.00105  -0.03436  -0.03331   2.12422
   D14       -0.28057  -0.00056  -0.00040  -0.03816  -0.03856  -0.31913
   D15        0.00011   0.00000   0.00000  -0.00011  -0.00010   0.00000
   D16        2.68682  -0.00045  -0.00121  -0.00912  -0.01033   2.67649
   D17       -2.68658   0.00044   0.00122   0.00890   0.01012  -2.67646
   D18        0.00013   0.00000   0.00001  -0.00011  -0.00010   0.00003
   D19       -0.13527   0.00005  -0.00108   0.01957   0.01853  -0.11675
   D20        2.97389   0.00026  -0.00087   0.02989   0.02904   3.00292
   D21        1.01659   0.00067  -0.00124   0.02389   0.02266   1.03925
   D22       -2.15744   0.00089  -0.00104   0.03421   0.03317  -2.12427
   D23       -2.82855   0.00035   0.00020   0.02773   0.02794  -2.80061
   D24        0.28062   0.00056   0.00040   0.03805   0.03845   0.31907
   D25        0.14089  -0.00017   0.00114  -0.02072  -0.01957   0.12132
   D26       -3.11088  -0.00001   0.00068  -0.00089  -0.00017  -3.11105
   D27       -2.96759  -0.00036   0.00093  -0.03115  -0.03023  -2.99781
   D28        0.06382  -0.00021   0.00047  -0.01132  -0.01083   0.05300
         Item               Value     Threshold  Converged?
 Maximum Force            0.005316     0.000450     NO 
 RMS     Force            0.001483     0.000300     NO 
 Maximum Displacement     0.056614     0.001800     NO 
 RMS     Displacement     0.013702     0.001200     NO 
 Predicted change in Energy=-2.890017D-04
 GradGradGradGradGradGradGradGradGradGradGradGradGradGradGradGradGradGrad

                          Input orientation:                          
 ---------------------------------------------------------------------
 Center     Atomic      Atomic             Coordinates (Angstroms)
 Number     Number       Type             X           Y           Z
 ---------------------------------------------------------------------
      1          6           0        1.432343   -0.730823    0.099454
      2          6           0        0.330394   -1.425622   -0.170123
      3          6           0       -0.968122   -0.740937   -0.329341
      4          6           0       -0.967824    0.741255   -0.329321
      5          6           0        0.330922    1.425475   -0.170096
      6          6           0        1.432623    0.730271    0.099449
      7          1           0        2.369234   -1.237877    0.241971
      8          1           0        0.366931   -2.492086   -0.297079
      9          1           0        0.367830    2.491921   -0.297084
     10          1           0        2.369710    1.236969    0.241938
     11          8           0       -1.431556    0.000229    0.770115
     12          1           0       -1.748947    1.266830   -0.849116
     13          1           0       -1.749417   -1.266236   -0.849156
 ---------------------------------------------------------------------
                    Distance matrix (angstroms):
                    1          2          3          4          5
     1  C    0.000000
     2  C    1.330304   0.000000
     3  C    2.438483   1.476579   0.000000
     4  C    2.848099   2.531021   1.482192   0.000000
     5  C    2.436269   2.851096   2.531050   1.476568   0.000000
     6  C    1.461095   2.436279   2.848138   2.438466   1.330303
     7  H    1.074792   2.088525   3.422176   3.921644   3.379046
     8  H    2.096279   1.074615   2.202255   3.498157   3.919783
     9  H    3.417092   3.919779   3.498168   2.202236   1.074615
    10  H    2.184300   3.379053   3.921683   3.422164   2.088531
    11  O    3.030865   2.453888   1.404600   1.404610   2.453906
    12  H    3.874405   3.469004   2.216074   1.075439   2.193649
    13  H    3.363053   2.193651   1.075439   2.216109   3.469041
                    6          7          8          9         10
     6  C    0.000000
     7  H    2.184299   0.000000
     8  H    3.417092   2.423392   0.000000
     9  H    2.096291   4.267036   4.984007   0.000000
    10  H    1.074792   2.474847   4.267026   2.423422   0.000000
    11  O    3.030888   4.032102   3.253474   3.253496   4.032136
    12  H    3.363044   4.942008   4.348694   2.507256   4.260825
    13  H    3.874439   4.260827   2.507274   4.348709   4.942037
                   11         12         13
    11  O    0.000000
    12  H    2.080127   0.000000
    13  H    2.080147   2.533067   0.000000
 Stoichiometry    C6H6O
 Framework group  C1[X(C6H6O)]
 Deg. of freedom    33
 Full point group                 C1      NOp   1
 Largest Abelian subgroup         C1      NOp   1
 Largest concise Abelian subgroup C1      NOp   1
                         Standard orientation:                         
 ---------------------------------------------------------------------
 Center     Atomic      Atomic             Coordinates (Angstroms)
 Number     Number       Type             X           Y           Z
 ---------------------------------------------------------------------
      1          6           0       -1.431049    0.730591    0.109776
      2          6           0       -0.329462    1.425555   -0.160853
      3          6           0        0.969002    0.741064   -0.321316
      4          6           0        0.968926   -0.741128   -0.321302
      5          6           0       -0.329566   -1.425542   -0.160837
      6          6           0       -1.431112   -0.730504    0.109765
      7          1           0       -2.367879    1.237504    0.253191
      8          1           0       -0.366280    2.492014   -0.287769
      9          1           0       -0.366435   -2.491993   -0.287795
     10          1           0       -2.367986   -1.237343    0.253148
     11          8           0        1.433599   -0.000037    0.777693
     12          1           0        1.749630   -1.266584   -0.841847
     13          1           0        1.749721    1.266482   -0.841876
 ---------------------------------------------------------------------
 Rotational constants (GHZ):      4.6699744      3.6196450      2.3118702
 Standard basis: 6-31G(d) (6D, 7F)
 There are   117 symmetry adapted cartesian basis functions of A   symmetry.
 There are   117 symmetry adapted basis functions of A   symmetry.
   117 basis functions,   220 primitive gaussians,   117 cartesian basis functions
    25 alpha electrons       25 beta electrons
       nuclear repulsion energy       282.8051499380 Hartrees.
 NAtoms=   13 NActive=   13 NUniq=   13 SFac= 1.00D+00 NAtFMM=   60 NAOKFM=F Big=F
 Integral buffers will be    131072 words long.
 Raffenetti 1 integral format.
 Two-electron integral symmetry is turned on.
 One-electron integrals computed using PRISM.
 NBasis=   117 RedAO= T EigKep=  5.80D-04  NBF=   117
 NBsUse=   117 1.00D-06 EigRej= -1.00D+00 NBFU=   117
 Initial guess from the checkpoint file:  "/tmp/Gau-6293.chk"
 B after Tr=     0.000000    0.000000    0.000000
         Rot=    1.000000   -0.000002   -0.000462   -0.000032 Ang=  -0.05 deg.
 ExpMin= 1.61D-01 ExpMax= 5.48D+03 ExpMxC= 8.25D+02 IAcc=1 IRadAn=         1 AccDes= 0.00D+00
 Harris functional with IExCor=  205 and IRadAn=       1 diagonalized for initial guess.
 HarFok:  IExCor=  205 AccDes= 0.00D+00 IRadAn=         1 IDoV= 1 UseB2=F ITyADJ=14
 ICtDFT=  3500011 ScaDFX=  1.000000  1.000000  1.000000  1.000000
 FoFCou: FMM=F IPFlag=           0 FMFlag=      100000 FMFlg1=           0
         NFxFlg=           0 DoJE=T BraDBF=F KetDBF=T FulRan=T
         wScrn=  0.000000 ICntrl=     500 IOpCl=  0 I1Cent=   200000004 NGrid=           0
         NMat0=    1 NMatS0=      1 NMatT0=    0 NMatD0=    1 NMtDS0=    0 NMtDT0=    0
 Petite list used in FoFCou.
 Keep R1 ints in memory in canonical form, NReq=24776729.
 Requested convergence on RMS density matrix=1.00D-08 within 128 cycles.
 Requested convergence on MAX density matrix=1.00D-06.
 Requested convergence on             energy=1.00D-06.
 No special actions if energy rises.
 SCF Done:  E(RHF) =  -305.485141561     A.U. after   11 cycles
            NFock= 11  Conv=0.67D-08     -V/T= 2.0010
 Calling FoFJK, ICntrl=      2127 FMM=F ISym2X=0 I1Cent= 0 IOpClX= 0 NMat=1 NMatS=1 NMatT=0.
 ***** Axes restored to original set *****
 -------------------------------------------------------------------
 Center     Atomic                   Forces (Hartrees/Bohr)
 Number     Number              X              Y              Z
 -------------------------------------------------------------------
      1        6          -0.000918329   -0.001220363   -0.000357118
      2        6           0.001493383   -0.000244924   -0.000162220
      3        6          -0.000361811    0.002860267    0.000253070
      4        6          -0.000385912   -0.002864624    0.000252719
      5        6           0.001498144    0.000243078   -0.000167351
      6        6          -0.000920572    0.001220106   -0.000354552
      7        1           0.000641245   -0.000127689    0.000006541
      8        1          -0.000289445   -0.000800204    0.000517288
      9        1          -0.000287668    0.000800642    0.000519000
     10        1           0.000641420    0.000127841    0.000007326
     11        8          -0.000628861    0.000001635    0.000834382
     12        1          -0.000239392    0.000906256   -0.000674649
     13        1          -0.000242203   -0.000902022   -0.000674434
 -------------------------------------------------------------------
 Cartesian Forces:  Max     0.002864624 RMS     0.000919277

 GradGradGradGradGradGradGradGradGradGradGradGradGradGradGradGradGradGrad
 Berny optimization.
 Using GEDIIS/GDIIS optimizer.
 FormGI is forming the generalized inverse of G from B-inverse, IUseBI=4.
 Internal  Forces:  Max     0.001351786 RMS     0.000453608
 Search for a local minimum.
 Step number   3 out of a maximum of   74
 All quantities printed in internal units (Hartrees-Bohrs-Radians)
 Mixed Optimization -- En-DIIS/RFO-DIIS
 Update second derivatives using D2CorX and points    1    2    3
 DE= -3.83D-04 DEPred=-2.89D-04 R= 1.32D+00
 TightC=F SS=  1.41D+00  RLast= 1.23D-01 DXNew= 8.4853D-01 3.6861D-01
 Trust test= 1.32D+00 RLast= 1.23D-01 DXMaxT set to 5.05D-01
 ITU=  1  1  0
 Use linear search instead of GDIIS.
     Eigenvalues ---    0.01066   0.01542   0.01788   0.01890   0.02013
     Eigenvalues ---    0.02262   0.02294   0.02807   0.03004   0.14071
     Eigenvalues ---    0.14176   0.15921   0.15941   0.15996   0.16010
     Eigenvalues ---    0.17683   0.17885   0.21763   0.21945   0.25843
     Eigenvalues ---    0.30375   0.33377   0.33884   0.34099   0.34334
     Eigenvalues ---    0.34400   0.34440   0.34443   0.35756   0.36566
     Eigenvalues ---    0.40650   0.51115   0.59132
 RFO step:  Lambda=-7.19528440D-05 EMin= 1.06564551D-02
 Quartic linear search produced a step of  0.49722.
 Iteration  1 RMS(Cart)=  0.01241372 RMS(Int)=  0.00011596
 Iteration  2 RMS(Cart)=  0.00013575 RMS(Int)=  0.00003179
 Iteration  3 RMS(Cart)=  0.00000001 RMS(Int)=  0.00003179
 Variable       Old X    -DE/DX   Delta X   Delta X   Delta X     New X
                                 (Linear)    (Quad)   (Total)
    R1        2.51391  -0.00030   0.00126  -0.00354  -0.00227   2.51164
    R2        2.76107   0.00135   0.00609   0.00096   0.00706   2.76813
    R3        2.03106   0.00062   0.00100   0.00070   0.00170   2.03276
    R4        2.79033   0.00130   0.00695   0.00005   0.00700   2.79733
    R5        2.03073   0.00072   0.00097   0.00118   0.00215   2.03288
    R6        2.80094  -0.00077  -0.00844  -0.00127  -0.00971   2.79122
    R7        2.65431   0.00036  -0.00161   0.00220   0.00058   2.65489
    R8        2.03229   0.00094   0.00114   0.00181   0.00295   2.03523
    R9        2.79031   0.00130   0.00696   0.00007   0.00702   2.79733
   R10        2.65433   0.00035  -0.00161   0.00219   0.00057   2.65490
   R11        2.03229   0.00094   0.00113   0.00182   0.00294   2.03523
   R12        2.51391  -0.00030   0.00125  -0.00353  -0.00227   2.51164
   R13        2.03073   0.00072   0.00098   0.00118   0.00215   2.03288
   R14        2.03106   0.00062   0.00100   0.00070   0.00170   2.03276
    A1        2.12051   0.00005  -0.00097   0.00179   0.00073   2.12124
    A2        2.09732   0.00016   0.00317  -0.00085   0.00228   2.09960
    A3        2.06190  -0.00020  -0.00138  -0.00057  -0.00199   2.05992
    A4        2.10380  -0.00021   0.00092  -0.00199  -0.00113   2.10266
    A5        2.11075   0.00031   0.00111   0.00175   0.00287   2.11363
    A6        2.06842  -0.00010  -0.00190   0.00027  -0.00162   2.06680
    A7        2.05276   0.00017   0.00110   0.00127   0.00228   2.05504
    A8        2.03804   0.00014  -0.00004   0.00233   0.00228   2.04032
    A9        2.05387  -0.00066  -0.00213  -0.00532  -0.00743   2.04644
   A10        2.08128   0.00046  -0.00092   0.00519   0.00430   2.08559
   A11        1.97838   0.00015   0.00314  -0.00104   0.00208   1.98046
   A12        2.05281   0.00016   0.00105   0.00123   0.00220   2.05500
   A13        2.08123   0.00046  -0.00087   0.00522   0.00439   2.08562
   A14        2.03807   0.00013  -0.00010   0.00237   0.00226   2.04032
   A15        2.05389  -0.00066  -0.00214  -0.00533  -0.00745   2.04644
   A16        1.97833   0.00016   0.00320  -0.00105   0.00213   1.98047
   A17        2.10379  -0.00021   0.00094  -0.00199  -0.00111   2.10268
   A18        2.06841  -0.00010  -0.00189   0.00027  -0.00161   2.06680
   A19        2.11078   0.00031   0.00107   0.00175   0.00283   2.11361
   A20        2.12050   0.00005  -0.00095   0.00180   0.00075   2.12125
   A21        2.06191  -0.00020  -0.00137  -0.00058  -0.00199   2.05992
   A22        2.09734   0.00015   0.00315  -0.00085   0.00226   2.09960
    D1       -0.12138   0.00011   0.00965   0.01056   0.02020  -0.10117
    D2        2.99783   0.00017   0.01508   0.01219   0.02728   3.02511
    D3        3.11101   0.00007  -0.00002   0.00573   0.00568   3.11669
    D4       -0.05297   0.00014   0.00542   0.00736   0.01276  -0.04021
    D5        0.00004   0.00000   0.00004  -0.00006  -0.00002   0.00001
    D6       -3.05255  -0.00005  -0.00969  -0.00479  -0.01443  -3.06698
    D7        3.05262   0.00005   0.00979   0.00466   0.01440   3.06701
    D8        0.00003   0.00000   0.00006  -0.00007  -0.00001   0.00001
    D9        0.11676  -0.00009  -0.00911  -0.01021  -0.01936   0.09740
   D10       -1.03922  -0.00049  -0.01120  -0.01236  -0.02358  -1.06280
   D11        2.80061  -0.00004  -0.01381  -0.00628  -0.02011   2.78050
   D12       -3.00298  -0.00017  -0.01447  -0.01182  -0.02631  -3.02929
   D13        2.12422  -0.00057  -0.01656  -0.01397  -0.03052   2.09370
   D14       -0.31913  -0.00011  -0.01917  -0.00789  -0.02706  -0.34619
   D15        0.00000   0.00000  -0.00005   0.00006   0.00001   0.00002
   D16        2.67649  -0.00025  -0.00513   0.00118  -0.00396   2.67253
   D17       -2.67646   0.00025   0.00503  -0.00108   0.00395  -2.67251
   D18        0.00003   0.00000  -0.00005   0.00003  -0.00002   0.00001
   D19       -0.11675   0.00009   0.00921   0.01008   0.01932  -0.09742
   D20        3.00292   0.00017   0.01444   0.01189   0.02634   3.02926
   D21        1.03925   0.00049   0.01127   0.01224   0.02352   1.06276
   D22       -2.12427   0.00057   0.01649   0.01404   0.03053  -2.09374
   D23       -2.80061   0.00004   0.01389   0.00618   0.02009  -2.78052
   D24        0.31907   0.00011   0.01912   0.00798   0.02710   0.34616
   D25        0.12132  -0.00010  -0.00973  -0.01044  -0.02016   0.10116
   D26       -3.11105  -0.00007  -0.00008  -0.00560  -0.00564  -3.11670
   D27       -2.99781  -0.00017  -0.01503  -0.01226  -0.02730  -3.02511
   D28        0.05300  -0.00014  -0.00538  -0.00742  -0.01279   0.04021
         Item               Value     Threshold  Converged?
 Maximum Force            0.001352     0.000450     NO 
 RMS     Force            0.000454     0.000300     NO 
 Maximum Displacement     0.054550     0.001800     NO 
 RMS     Displacement     0.012418     0.001200     NO 
 Predicted change in Energy=-8.382784D-05
 GradGradGradGradGradGradGradGradGradGradGradGradGradGradGradGradGradGrad

                          Input orientation:                          
 ---------------------------------------------------------------------
 Center     Atomic      Atomic             Coordinates (Angstroms)
 Number     Number       Type             X           Y           Z
 ---------------------------------------------------------------------
      1          6           0        1.434965   -0.732701    0.088879
      2          6           0        0.330876   -1.427713   -0.165001
      3          6           0       -0.968458   -0.738364   -0.331625
      4          6           0       -0.968205    0.738687   -0.331615
      5          6           0        0.331390    1.427548   -0.164998
      6          6           0        1.435228    0.732133    0.088873
      7          1           0        2.373567   -1.238280    0.232142
      8          1           0        0.359479   -2.498121   -0.268218
      9          1           0        0.360400    2.497945   -0.268218
     10          1           0        2.374014    1.237376    0.232118
     11          8           0       -1.441535    0.000232    0.765847
     12          1           0       -1.743578    1.269116   -0.858270
     13          1           0       -1.744023   -1.268489   -0.858304
 ---------------------------------------------------------------------
                    Distance matrix (angstroms):
                    1          2          3          4          5
     1  C    0.000000
     2  C    1.329102   0.000000
     3  C    2.439938   1.480281   0.000000
     4  C    2.849040   2.531533   1.477051   0.000000
     5  C    2.439059   2.855261   2.531510   1.480283   0.000000
     6  C    1.464834   2.439053   2.849015   2.439948   1.329102
     7  H    1.075690   2.089545   3.425913   3.923477   3.381546
     8  H    2.097831   1.075753   2.205489   3.499099   3.927126
     9  H    3.423344   3.927126   3.499083   2.205493   1.075754
    10  H    2.187129   3.381541   3.923451   3.425918   2.089541
    11  O    3.044624   2.459053   1.404909   1.404913   2.459058
    12  H    3.873951   3.472300   2.215433   1.076998   2.193449
    13  H    3.360088   2.193450   1.076998   2.215413   3.472266
                    6          7          8          9         10
     6  C    0.000000
     7  H    2.187129   0.000000
     8  H    3.423344   2.427779   0.000000
     9  H    2.097824   4.273475   4.996066   0.000000
    10  H    1.075690   2.475657   4.273479   2.427759   0.000000
    11  O    3.044625   4.046451   3.248801   3.248820   4.046456
    12  H    3.360095   4.942360   4.354663   2.506971   4.259638
    13  H    3.873922   4.259640   2.506973   4.354633   4.942328
                   11         12         13
    11  O    0.000000
    12  H    2.083040   0.000000
    13  H    2.083031   2.537606   0.000000
 Stoichiometry    C6H6O
 Framework group  C1[X(C6H6O)]
 Deg. of freedom    33
 Full point group                 C1      NOp   1
 Largest Abelian subgroup         C1      NOp   1
 Largest concise Abelian subgroup C1      NOp   1
                         Standard orientation:                         
 ---------------------------------------------------------------------
 Center     Atomic      Atomic             Coordinates (Angstroms)
 Number     Number       Type             X           Y           Z
 ---------------------------------------------------------------------
      1          6           0       -1.434336    0.732401    0.104527
      2          6           0       -0.331193    1.427627   -0.152854
      3          6           0        0.967739    0.738531   -0.323600
      4          6           0        0.967774   -0.738521   -0.323588
      5          6           0       -0.331152   -1.427634   -0.152848
      6          6           0       -1.434314   -0.732433    0.104523
      7          1           0       -2.372577    1.237798    0.250768
      8          1           0       -0.360332    2.498029   -0.255981
      9          1           0       -0.360281   -2.498037   -0.255975
     10          1           0       -2.372543   -1.237858    0.250747
     11          8           0        1.444440    0.000029    0.772365
     12          1           0        1.741575   -1.268799   -0.852701
     13          1           0        1.741526    1.268807   -0.852738
 ---------------------------------------------------------------------
 Rotational constants (GHZ):      4.6696912      3.6070576      2.3027786
 Standard basis: 6-31G(d) (6D, 7F)
 There are   117 symmetry adapted cartesian basis functions of A   symmetry.
 There are   117 symmetry adapted basis functions of A   symmetry.
   117 basis functions,   220 primitive gaussians,   117 cartesian basis functions
    25 alpha electrons       25 beta electrons
       nuclear repulsion energy       282.5540559946 Hartrees.
 NAtoms=   13 NActive=   13 NUniq=   13 SFac= 1.00D+00 NAtFMM=   60 NAOKFM=F Big=F
 Integral buffers will be    131072 words long.
 Raffenetti 1 integral format.
 Two-electron integral symmetry is turned on.
 One-electron integrals computed using PRISM.
 NBasis=   117 RedAO= T EigKep=  5.83D-04  NBF=   117
 NBsUse=   117 1.00D-06 EigRej= -1.00D+00 NBFU=   117
 Initial guess from the checkpoint file:  "/tmp/Gau-6293.chk"
 B after Tr=     0.000000    0.000000    0.000000
         Rot=    1.000000    0.000001   -0.000993   -0.000023 Ang=   0.11 deg.
 ExpMin= 1.61D-01 ExpMax= 5.48D+03 ExpMxC= 8.25D+02 IAcc=1 IRadAn=         1 AccDes= 0.00D+00
 Harris functional with IExCor=  205 and IRadAn=       1 diagonalized for initial guess.
 HarFok:  IExCor=  205 AccDes= 0.00D+00 IRadAn=         1 IDoV= 1 UseB2=F ITyADJ=14
 ICtDFT=  3500011 ScaDFX=  1.000000  1.000000  1.000000  1.000000
 FoFCou: FMM=F IPFlag=           0 FMFlag=      100000 FMFlg1=           0
         NFxFlg=           0 DoJE=T BraDBF=F KetDBF=T FulRan=T
         wScrn=  0.000000 ICntrl=     500 IOpCl=  0 I1Cent=   200000004 NGrid=           0
         NMat0=    1 NMatS0=      1 NMatT0=    0 NMatD0=    1 NMtDS0=    0 NMtDT0=    0
 Petite list used in FoFCou.
 Keep R1 ints in memory in canonical form, NReq=24776699.
 Requested convergence on RMS density matrix=1.00D-08 within 128 cycles.
 Requested convergence on MAX density matrix=1.00D-06.
 Requested convergence on             energy=1.00D-06.
 No special actions if energy rises.
 SCF Done:  E(RHF) =  -305.485225324     A.U. after   10 cycles
            NFock= 10  Conv=0.91D-08     -V/T= 2.0011
 Calling FoFJK, ICntrl=      2127 FMM=F ISym2X=0 I1Cent= 0 IOpClX= 0 NMat=1 NMatS=1 NMatT=0.
 ***** Axes restored to original set *****
 -------------------------------------------------------------------
 Center     Atomic                   Forces (Hartrees/Bohr)
 Number     Number              X              Y              Z
 -------------------------------------------------------------------
      1        6           0.000235002    0.000428321    0.000001910
      2        6          -0.000268010   -0.000131396   -0.000123942
      3        6           0.000093481   -0.000416365   -0.000335923
      4        6           0.000104076    0.000413624   -0.000331223
      5        6          -0.000268533    0.000135061   -0.000122680
      6        6           0.000235053   -0.000428574    0.000002006
      7        1          -0.000034576    0.000053134    0.000004538
      8        1          -0.000026343    0.000172061    0.000031250
      9        1          -0.000027144   -0.000172340    0.000031196
     10        1          -0.000034473   -0.000053260    0.000004924
     11        8          -0.000383360    0.000002274    0.000972756
     12        1           0.000186959   -0.000074510   -0.000068005
     13        1           0.000187866    0.000071971   -0.000066808
 -------------------------------------------------------------------
 Cartesian Forces:  Max     0.000972756 RMS     0.000254604

 GradGradGradGradGradGradGradGradGradGradGradGradGradGradGradGradGradGrad
 Berny optimization.
 Using GEDIIS/GDIIS optimizer.
 FormGI is forming the generalized inverse of G from B-inverse, IUseBI=4.
 Internal  Forces:  Max     0.000573303 RMS     0.000135993
 Search for a local minimum.
 Step number   4 out of a maximum of   74
 All quantities printed in internal units (Hartrees-Bohrs-Radians)
 Mixed Optimization -- En-DIIS/RFO-DIIS
 Swapping is turned off.
 Update second derivatives using D2CorX and points    1    2    3    4
 DE= -8.38D-05 DEPred=-8.38D-05 R= 9.99D-01
 TightC=F SS=  1.41D+00  RLast= 1.05D-01 DXNew= 8.4853D-01 3.1506D-01
 Trust test= 9.99D-01 RLast= 1.05D-01 DXMaxT set to 5.05D-01
 ITU=  1  1  1  0
     Eigenvalues ---    0.00994   0.01543   0.01786   0.01889   0.02012
     Eigenvalues ---    0.02255   0.02298   0.02824   0.03080   0.13928
     Eigenvalues ---    0.14168   0.15932   0.15944   0.15998   0.16016
     Eigenvalues ---    0.17619   0.17801   0.21828   0.21962   0.25656
     Eigenvalues ---    0.30359   0.33873   0.33884   0.34088   0.34345
     Eigenvalues ---    0.34400   0.34434   0.34440   0.36004   0.38122
     Eigenvalues ---    0.41144   0.51131   0.59328
 En-DIIS/RFO-DIIS IScMMF=        0 using points:     4    3
 RFO step:  Lambda=-2.10725050D-06.
 DidBck=F Rises=F RFO-DIIS coefs:    1.00322   -0.00322
 Iteration  1 RMS(Cart)=  0.00114905 RMS(Int)=  0.00000158
 Iteration  2 RMS(Cart)=  0.00000140 RMS(Int)=  0.00000061
 Iteration  3 RMS(Cart)=  0.00000000 RMS(Int)=  0.00000061
 Variable       Old X    -DE/DX   Delta X   Delta X   Delta X     New X
                                 (Linear)    (Quad)   (Total)
    R1        2.51164   0.00020  -0.00001   0.00027   0.00027   2.51190
    R2        2.76813  -0.00042   0.00002  -0.00100  -0.00098   2.76716
    R3        2.03276  -0.00005   0.00001  -0.00016  -0.00016   2.03260
    R4        2.79733  -0.00014   0.00002  -0.00021  -0.00019   2.79714
    R5        2.03288  -0.00017   0.00001  -0.00050  -0.00049   2.03238
    R6        2.79122   0.00000  -0.00003  -0.00061  -0.00065   2.79058
    R7        2.65489   0.00057   0.00000   0.00149   0.00149   2.65639
    R8        2.03523  -0.00014   0.00001  -0.00040  -0.00039   2.03485
    R9        2.79733  -0.00014   0.00002  -0.00021  -0.00019   2.79714
   R10        2.65490   0.00057   0.00000   0.00148   0.00149   2.65639
   R11        2.03523  -0.00014   0.00001  -0.00040  -0.00039   2.03484
   R12        2.51164   0.00020  -0.00001   0.00027   0.00026   2.51190
   R13        2.03288  -0.00018   0.00001  -0.00050  -0.00050   2.03239
   R14        2.03276  -0.00005   0.00001  -0.00016  -0.00015   2.03260
    A1        2.12124  -0.00003   0.00000  -0.00015  -0.00015   2.12109
    A2        2.09960   0.00005   0.00001   0.00034   0.00035   2.09995
    A3        2.05992  -0.00002  -0.00001  -0.00015  -0.00016   2.05976
    A4        2.10266   0.00006   0.00000   0.00034   0.00033   2.10300
    A5        2.11363  -0.00001   0.00001  -0.00001   0.00000   2.11363
    A6        2.06680  -0.00005  -0.00001  -0.00033  -0.00034   2.06646
    A7        2.05504  -0.00004   0.00001  -0.00013  -0.00013   2.05491
    A8        2.04032  -0.00006   0.00001   0.00066   0.00067   2.04099
    A9        2.04644  -0.00002  -0.00002  -0.00058  -0.00061   2.04583
   A10        2.08559   0.00002   0.00001  -0.00069  -0.00068   2.08491
   A11        1.98046   0.00005   0.00001   0.00137   0.00138   1.98184
   A12        2.05500  -0.00004   0.00001  -0.00010  -0.00010   2.05491
   A13        2.08562   0.00001   0.00001  -0.00072  -0.00071   2.08491
   A14        2.04032  -0.00005   0.00001   0.00065   0.00066   2.04098
   A15        2.04644  -0.00002  -0.00002  -0.00058  -0.00061   2.04583
   A16        1.98047   0.00005   0.00001   0.00137   0.00138   1.98185
   A17        2.10268   0.00006   0.00000   0.00033   0.00032   2.10300
   A18        2.06680  -0.00005  -0.00001  -0.00033  -0.00033   2.06647
   A19        2.11361  -0.00001   0.00001   0.00000   0.00001   2.11362
   A20        2.12125  -0.00003   0.00000  -0.00016  -0.00016   2.12109
   A21        2.05992  -0.00002  -0.00001  -0.00015  -0.00015   2.05976
   A22        2.09960   0.00005   0.00001   0.00035   0.00035   2.09995
    D1       -0.10117  -0.00004   0.00006   0.00068   0.00074  -0.10043
    D2        3.02511  -0.00005   0.00009   0.00054   0.00063   3.02574
    D3        3.11669  -0.00002   0.00002   0.00007   0.00009   3.11678
    D4       -0.04021  -0.00002   0.00004  -0.00007  -0.00002  -0.04024
    D5        0.00001   0.00000   0.00000  -0.00001  -0.00001   0.00000
    D6       -3.06698   0.00002  -0.00005  -0.00062  -0.00066  -3.06765
    D7        3.06701  -0.00002   0.00005   0.00060   0.00065   3.06766
    D8        0.00001   0.00000   0.00000  -0.00001  -0.00001   0.00001
    D9        0.09740   0.00004  -0.00006  -0.00063  -0.00069   0.09671
   D10       -1.06280  -0.00009  -0.00008  -0.00138  -0.00146  -1.06426
   D11        2.78050  -0.00007  -0.00006  -0.00395  -0.00402   2.77648
   D12       -3.02929   0.00004  -0.00008  -0.00050  -0.00058  -3.02987
   D13        2.09370  -0.00008  -0.00010  -0.00125  -0.00135   2.09235
   D14       -0.34619  -0.00006  -0.00009  -0.00382  -0.00391  -0.35010
   D15        0.00002   0.00000   0.00000  -0.00003  -0.00003  -0.00001
   D16        2.67253  -0.00012  -0.00001  -0.00339  -0.00340   2.66913
   D17       -2.67251   0.00012   0.00001   0.00334   0.00336  -2.66915
   D18        0.00001   0.00000   0.00000  -0.00002  -0.00002  -0.00001
   D19       -0.09742  -0.00004   0.00006   0.00066   0.00073  -0.09670
   D20        3.02926  -0.00004   0.00008   0.00052   0.00060   3.02986
   D21        1.06276   0.00009   0.00008   0.00143   0.00151   1.06427
   D22       -2.09374   0.00008   0.00010   0.00128   0.00138  -2.09236
   D23       -2.78052   0.00007   0.00006   0.00399   0.00405  -2.77647
   D24        0.34616   0.00006   0.00009   0.00384   0.00393   0.35009
   D25        0.10116   0.00004  -0.00006  -0.00067  -0.00074   0.10043
   D26       -3.11670   0.00001  -0.00002  -0.00008  -0.00009  -3.11679
   D27       -3.02511   0.00005  -0.00009  -0.00052  -0.00061  -3.02572
   D28        0.04021   0.00002  -0.00004   0.00008   0.00004   0.04024
         Item               Value     Threshold  Converged?
 Maximum Force            0.000573     0.000450     NO 
 RMS     Force            0.000136     0.000300     YES
 Maximum Displacement     0.003194     0.001800     NO 
 RMS     Displacement     0.001149     0.001200     YES
 Predicted change in Energy=-2.436033D-06
 GradGradGradGradGradGradGradGradGradGradGradGradGradGradGradGradGradGrad

                          Input orientation:                          
 ---------------------------------------------------------------------
 Center     Atomic      Atomic             Coordinates (Angstroms)
 Number     Number       Type             X           Y           Z
 ---------------------------------------------------------------------
      1          6           0        1.435224   -0.732439    0.088322
      2          6           0        0.330657   -1.427348   -0.164497
      3          6           0       -0.968714   -0.738196   -0.330769
      4          6           0       -0.968446    0.738513   -0.330768
      5          6           0        0.331176    1.427190   -0.164482
      6          6           0        1.435490    0.731877    0.088329
      7          1           0        2.373883   -1.237834    0.231249
      8          1           0        0.358894   -2.497552   -0.267197
      9          1           0        0.359811    2.497384   -0.267185
     10          1           0        2.374332    1.236931    0.231253
     11          8           0       -1.443064    0.000245    0.767270
     12          1           0       -1.742326    1.268182   -0.859960
     13          1           0       -1.742795   -1.267581   -0.859954
 ---------------------------------------------------------------------
                    Distance matrix (angstroms):
                    1          2          3          4          5
     1  C    0.000000
     2  C    1.329242   0.000000
     3  C    2.440203   1.480183   0.000000
     4  C    2.849029   2.531061   1.476709   0.000000
     5  C    2.438612   2.854537   2.531060   1.480184   0.000000
     6  C    1.464316   2.438612   2.849027   2.440204   1.329241
     7  H    1.075608   2.089809   3.426143   3.923388   3.381066
     8  H    2.097738   1.075491   2.204975   3.498284   3.926183
     9  H    3.422668   3.926183   3.498285   2.204980   1.075492
    10  H    2.186497   3.381066   3.923386   3.426143   2.089807
    11  O    3.046693   2.460141   1.405700   1.405699   2.460135
    12  H    3.872796   3.470852   2.214514   1.076793   2.192803
    13  H    3.359377   2.192804   1.076794   2.214513   3.470854
                    6          7          8          9         10
     6  C    0.000000
     7  H    2.186497   0.000000
     8  H    3.422670   2.428069   0.000000
     9  H    2.097735   4.272795   4.994936   0.000000
    10  H    1.075608   2.474765   4.272799   2.428061   0.000000
    11  O    3.046690   4.048363   3.249025   3.249024   4.048361
    12  H    3.359374   4.941056   4.352843   2.506252   4.258943
    13  H    3.872798   4.258949   2.506249   4.352848   4.941058
                   11         12         13
    11  O    0.000000
    12  H    2.084491   0.000000
    13  H    2.084485   2.535764   0.000000
 Stoichiometry    C6H6O
 Framework group  C1[X(C6H6O)]
 Deg. of freedom    33
 Full point group                 C1      NOp   1
 Largest Abelian subgroup         C1      NOp   1
 Largest concise Abelian subgroup C1      NOp   1
                         Standard orientation:                         
 ---------------------------------------------------------------------
 Center     Atomic      Atomic             Coordinates (Angstroms)
 Number     Number       Type             X           Y           Z
 ---------------------------------------------------------------------
      1          6           0       -1.434778    0.732156    0.104537
      2          6           0       -0.331312    1.427269   -0.152491
      3          6           0        0.967542    0.738357   -0.323724
      4          6           0        0.967546   -0.738352   -0.323729
      5          6           0       -0.331306   -1.427269   -0.152488
[...]
   D22       -2.09236   0.00002  -0.00008   0.00053   0.00045  -2.09190
   D23       -2.77647  -0.00004  -0.00053  -0.00007  -0.00059  -2.77706
   D24        0.35009  -0.00004  -0.00048  -0.00039  -0.00087   0.34922
   D25        0.10043  -0.00002   0.00003  -0.00080  -0.00078   0.09965
   D26       -3.11679  -0.00001  -0.00001  -0.00042  -0.00043  -3.11722
   D27       -3.02572  -0.00002  -0.00002  -0.00047  -0.00049  -3.02621
   D28        0.04024  -0.00001  -0.00006  -0.00008  -0.00014   0.04010
         Item               Value     Threshold  Converged?
 Maximum Force            0.000121     0.000450     YES
 RMS     Force            0.000035     0.000300     YES
 Maximum Displacement     0.001100     0.001800     YES
 RMS     Displacement     0.000364     0.001200     YES
 Predicted change in Energy=-3.404850D-07
 Optimization completed.
    -- Stationary point found.
                           ----------------------------
                           !   Optimized Parameters   !
                           ! (Angstroms and Degrees)  !
 --------------------------                            --------------------------
 ! Name  Definition              Value          Derivative Info.                !
 --------------------------------------------------------------------------------
 ! R1    R(1,2)                  1.3292         -DE/DX =    0.0                 !
 ! R2    R(1,6)                  1.4643         -DE/DX =    0.0                 !
 ! R3    R(1,7)                  1.0756         -DE/DX =    0.0                 !
 ! R4    R(2,3)                  1.4802         -DE/DX =   -0.0001              !
 ! R5    R(2,8)                  1.0755         -DE/DX =    0.0                 !
 ! R6    R(3,4)                  1.4767         -DE/DX =    0.0001              !
 ! R7    R(3,11)                 1.4057         -DE/DX =    0.0001              !
 ! R8    R(3,13)                 1.0768         -DE/DX =    0.0                 !
 ! R9    R(4,5)                  1.4802         -DE/DX =   -0.0001              !
 ! R10   R(4,11)                 1.4057         -DE/DX =    0.0001              !
 ! R11   R(4,12)                 1.0768         -DE/DX =    0.0                 !
 ! R12   R(5,6)                  1.3292         -DE/DX =    0.0                 !
 ! R13   R(5,9)                  1.0755         -DE/DX =    0.0                 !
 ! R14   R(6,10)                 1.0756         -DE/DX =    0.0                 !
 ! A1    A(2,1,6)              121.5295         -DE/DX =    0.0                 !
 ! A2    A(2,1,7)              120.3184         -DE/DX =    0.0                 !
 ! A3    A(6,1,7)              118.0155         -DE/DX =    0.0                 !
 ! A4    A(1,2,3)              120.4929         -DE/DX =    0.0                 !
 ! A5    A(1,2,8)              121.1019         -DE/DX =    0.0                 !
 ! A6    A(3,2,8)              118.3995         -DE/DX =    0.0                 !
 ! A7    A(2,3,4)              117.7378         -DE/DX =    0.0                 !
 ! A8    A(2,3,11)             116.9402         -DE/DX =    0.0                 !
 ! A9    A(2,3,13)             117.2175         -DE/DX =    0.0                 !
 ! A10   A(4,3,13)             119.4564         -DE/DX =    0.0                 !
 ! A11   A(11,3,13)            113.5509         -DE/DX =   -0.0001              !
 ! A12   A(3,4,5)              117.7376         -DE/DX =    0.0                 !
 ! A13   A(3,4,12)             119.4566         -DE/DX =    0.0                 !
 ! A14   A(5,4,11)             116.9397         -DE/DX =    0.0                 !
 ! A15   A(5,4,12)             117.2174         -DE/DX =    0.0                 !
 ! A16   A(11,4,12)            113.5516         -DE/DX =   -0.0001              !
 ! A17   A(4,5,6)              120.4929         -DE/DX =    0.0                 !
 ! A18   A(4,5,9)              118.3998         -DE/DX =    0.0                 !
 ! A19   A(6,5,9)              121.1015         -DE/DX =    0.0                 !
 ! A20   A(1,6,5)              121.5296         -DE/DX =    0.0                 !
 ! A21   A(1,6,10)             118.0156         -DE/DX =    0.0                 !
 ! A22   A(5,6,10)             120.3183         -DE/DX =    0.0                 !
 ! D1    D(6,1,2,3)             -5.7543         -DE/DX =    0.0                 !
 ! D2    D(6,1,2,8)            173.3621         -DE/DX =    0.0                 !
 ! D3    D(7,1,2,3)            178.5782         -DE/DX =    0.0                 !
 ! D4    D(7,1,2,8)             -2.3054         -DE/DX =    0.0                 !
 ! D5    D(2,1,6,5)              0.0            -DE/DX =    0.0                 !
 ! D6    D(2,1,6,10)          -175.7633         -DE/DX =    0.0                 !
 ! D7    D(7,1,6,5)            175.7638         -DE/DX =    0.0                 !
 ! D8    D(7,1,6,10)             0.0005         -DE/DX =    0.0                 !
 ! D9    D(1,2,3,4)              5.5412         -DE/DX =    0.0                 !
 ! D10   D(1,2,3,11)           -60.9775         -DE/DX =    0.0                 !
 ! D11   D(1,2,3,13)           159.0807         -DE/DX =    0.0                 !
 ! D12   D(8,2,3,4)           -173.5987         -DE/DX =    0.0                 !
 ! D13   D(8,2,3,11)           119.8827         -DE/DX =    0.0                 !
 ! D14   D(8,2,3,13)           -20.0592         -DE/DX =    0.0                 !
 ! D15   D(2,3,4,5)             -0.0006         -DE/DX =    0.0                 !
 ! D16   D(2,3,4,12)           152.9298         -DE/DX =    0.0001              !
 ! D17   D(13,3,4,5)          -152.931          -DE/DX =   -0.0001              !
 ! D18   D(13,3,4,12)           -0.0007         -DE/DX =    0.0                 !
 ! D19   D(3,4,5,6)             -5.5403         -DE/DX =    0.0                 !
 ! D20   D(3,4,5,9)            173.5983         -DE/DX =    0.0                 !
 ! D21   D(11,4,5,6)            60.9782         -DE/DX =    0.0                 !
 ! D22   D(11,4,5,9)          -119.8832         -DE/DX =    0.0                 !
 ! D23   D(12,4,5,6)          -159.0798         -DE/DX =    0.0                 !
 ! D24   D(12,4,5,9)            20.0589         -DE/DX =    0.0                 !
 ! D25   D(4,5,6,1)              5.754          -DE/DX =    0.0                 !
 ! D26   D(4,5,6,10)          -178.5791         -DE/DX =    0.0                 !
 ! D27   D(9,5,6,1)           -173.3611         -DE/DX =    0.0                 !
 ! D28   D(9,5,6,10)             2.3058         -DE/DX =    0.0                 !
 --------------------------------------------------------------------------------
 GradGradGradGradGradGradGradGradGradGradGradGradGradGradGradGradGradGrad

                          Input orientation:                          
 ---------------------------------------------------------------------
 Center     Atomic      Atomic             Coordinates (Angstroms)
 Number     Number       Type             X           Y           Z
 ---------------------------------------------------------------------
      1          6           0        1.435224   -0.732439    0.088322
      2          6           0        0.330657   -1.427348   -0.164497
      3          6           0       -0.968714   -0.738196   -0.330769
      4          6           0       -0.968446    0.738513   -0.330768
      5          6           0        0.331176    1.427190   -0.164482
      6          6           0        1.435490    0.731877    0.088329
      7          1           0        2.373883   -1.237834    0.231249
      8          1           0        0.358894   -2.497552   -0.267197
      9          1           0        0.359811    2.497384   -0.267185
     10          1           0        2.374332    1.236931    0.231253
     11          8           0       -1.443064    0.000245    0.767270
     12          1           0       -1.742326    1.268182   -0.859960
     13          1           0       -1.742795   -1.267581   -0.859954
 ---------------------------------------------------------------------
                    Distance matrix (angstroms):
                    1          2          3          4          5
     1  C    0.000000
     2  C    1.329242   0.000000
     3  C    2.440203   1.480183   0.000000
     4  C    2.849029   2.531061   1.476709   0.000000
     5  C    2.438612   2.854537   2.531060   1.480184   0.000000
     6  C    1.464316   2.438612   2.849027   2.440204   1.329241
     7  H    1.075608   2.089809   3.426143   3.923388   3.381066
     8  H    2.097738   1.075491   2.204975   3.498284   3.926183
     9  H    3.422668   3.926183   3.498285   2.204980   1.075492
    10  H    2.186497   3.381066   3.923386   3.426143   2.089807
    11  O    3.046693   2.460141   1.405700   1.405699   2.460135
    12  H    3.872796   3.470852   2.214514   1.076793   2.192803
    13  H    3.359377   2.192804   1.076794   2.214513   3.470854
                    6          7          8          9         10
     6  C    0.000000
     7  H    2.186497   0.000000
     8  H    3.422670   2.428069   0.000000
     9  H    2.097735   4.272795   4.994936   0.000000
    10  H    1.075608   2.474765   4.272799   2.428061   0.000000
    11  O    3.046690   4.048363   3.249025   3.249024   4.048361
    12  H    3.359374   4.941056   4.352843   2.506252   4.258943
    13  H    3.872798   4.258949   2.506249   4.352848   4.941058
                   11         12         13
    11  O    0.000000
    12  H    2.084491   0.000000
    13  H    2.084485   2.535764   0.000000
 Stoichiometry    C6H6O
 Framework group  C1[X(C6H6O)]
 Deg. of freedom    33
 Full point group                 C1      NOp   1
 Largest Abelian subgroup         C1      NOp   1
 Largest concise Abelian subgroup C1      NOp   1
                         Standard orientation:                         
 ---------------------------------------------------------------------
 Center     Atomic      Atomic             Coordinates (Angstroms)
 Number     Number       Type             X           Y           Z
 ---------------------------------------------------------------------
      1          6           0       -1.434778    0.732156    0.104537
      2          6           0       -0.331312    1.427269   -0.152491
      3          6           0        0.967542    0.738357   -0.323724
      4          6           0        0.967546   -0.738352   -0.323729
      5          6           0       -0.331306   -1.427269   -0.152488
      6          6           0       -1.434775   -0.732160    0.104539
      7          1           0       -2.372978    1.237378    0.251048
      8          1           0       -0.360137    2.497468   -0.255079
      9          1           0       -0.360135   -2.497467   -0.255086
     10          1           0       -2.372972   -1.237388    0.251042
     11          8           0        1.446215   -0.000001    0.772493
     12          1           0        1.739498   -1.267877   -0.855874
     13          1           0        1.739500    1.267886   -0.855857
 ---------------------------------------------------------------------
 Rotational constants (GHZ):      4.6714367      3.6042988      2.3023323

 **********************************************************************

            Population analysis using the SCF density.

 **********************************************************************

 Orbital symmetries:
       Occupied  (A) (A) (A) (A) (A) (A) (A) (A) (A) (A) (A) (A)
                 (A) (A) (A) (A) (A) (A) (A) (A) (A) (A) (A) (A)
                 (A)
       Virtual   (A) (A) (A) (A) (A) (A) (A) (A) (A) (A) (A) (A)
                 (A) (A) (A) (A) (A) (A) (A) (A) (A) (A) (A) (A)
                 (A) (A) (A) (A) (A) (A) (A) (A) (A) (A) (A) (A)
                 (A) (A) (A) (A) (A) (A) (A) (A) (A) (A) (A) (A)
                 (A) (A) (A) (A) (A) (A) (A) (A) (A) (A) (A) (A)
                 (A) (A) (A) (A) (A) (A) (A) (A) (A) (A) (A) (A)
                 (A) (A) (A) (A) (A) (A) (A) (A) (A) (A) (A) (A)
                 (A) (A) (A) (A) (A) (A) (A) (A)
 The electronic state is 1-A.
 Alpha  occ. eigenvalues --  -20.57099 -11.28841 -11.28766 -11.23936 -11.23861
 Alpha  occ. eigenvalues --  -11.23483 -11.23481  -1.42996  -1.11746  -1.02908
 Alpha  occ. eigenvalues --   -0.94433  -0.86201  -0.81785  -0.73226  -0.68077
 Alpha  occ. eigenvalues --   -0.65411  -0.63776  -0.60290  -0.55645  -0.52590
 Alpha  occ. eigenvalues --   -0.50818  -0.48996  -0.43641  -0.39585  -0.32348
 Alpha virt. eigenvalues --    0.11095   0.21955   0.23131   0.28504   0.28633
 Alpha virt. eigenvalues --    0.31888   0.32019   0.33495   0.37880   0.38080
 Alpha virt. eigenvalues --    0.44547   0.45613   0.48314   0.50053   0.64349
 Alpha virt. eigenvalues --    0.69031   0.73591   0.74031   0.76416   0.77664
 Alpha virt. eigenvalues --    0.80074   0.82723   0.82856   0.84527   0.85616
 Alpha virt. eigenvalues --    0.88314   0.88594   0.92331   0.96378   1.07706
 Alpha virt. eigenvalues --    1.08392   1.10333   1.11217   1.12828   1.13364
 Alpha virt. eigenvalues --    1.14112   1.18232   1.19892   1.21930   1.23204
 Alpha virt. eigenvalues --    1.27610   1.29257   1.32757   1.39468   1.44389
 Alpha virt. eigenvalues --    1.48608   1.50813   1.67297   1.68357   1.72622
 Alpha virt. eigenvalues --    1.75945   1.79627   1.80606   1.84878   1.86433
 Alpha virt. eigenvalues --    2.02950   2.07482   2.15965   2.20483   2.21674
 Alpha virt. eigenvalues --    2.24339   2.30537   2.31803   2.33649   2.37828
 Alpha virt. eigenvalues --    2.46065   2.50219   2.53542   2.55664   2.59763
 Alpha virt. eigenvalues --    2.65131   2.67306   2.83247   2.83265   2.89998
 Alpha virt. eigenvalues --    2.94123   2.96219   2.99075   3.05864   3.08202
 Alpha virt. eigenvalues --    3.10806   3.25793   3.30897   3.37001   3.67535
 Alpha virt. eigenvalues --    4.24255   4.53242   4.57656   4.63410   4.80244
 Alpha virt. eigenvalues --    4.83656   5.12066
          Condensed to atoms (all electrons):
               1          2          3          4          5          6
     1  C    4.890812   0.663127  -0.042426  -0.014317  -0.053750   0.423386
     2  C    0.663127   4.960579   0.391905  -0.036941  -0.019302  -0.053750
     3  C   -0.042426   0.391905   4.820818   0.346741  -0.036942  -0.014317
     4  C   -0.014317  -0.036941   0.346741   4.820820   0.391906  -0.042426
     5  C   -0.053750  -0.019302  -0.036942   0.391906   4.960577   0.663128
     6  C    0.423386  -0.053750  -0.014317  -0.042426   0.663128   4.890812
     7  H    0.384883  -0.029710   0.002603   0.000231   0.002526  -0.032797
     8  H   -0.029588   0.384241  -0.033339   0.001921   0.000012   0.002689
     9  H    0.002689   0.000012   0.001921  -0.033339   0.384241  -0.029589
    10  H   -0.032797   0.002526   0.000231   0.002603  -0.029710   0.384883
    11  O    0.000897  -0.045942   0.140089   0.140088  -0.045943   0.000897
    12  H    0.000183   0.000920  -0.017499   0.395724  -0.041035   0.003277
    13  H    0.003277  -0.041036   0.395725  -0.017499   0.000920   0.000183
               7          8          9         10         11         12
     1  C    0.384883  -0.029588   0.002689  -0.032797   0.000897   0.000183
     2  C   -0.029710   0.384241   0.000012   0.002526  -0.045942   0.000920
     3  C    0.002603  -0.033339   0.001921   0.000231   0.140089  -0.017499
     4  C    0.000231   0.001921  -0.033339   0.002603   0.140088   0.395724
     5  C    0.002526   0.000012   0.384241  -0.029710  -0.045943  -0.041035
     6  C   -0.032797   0.002689  -0.029589   0.384883   0.000897   0.003277
     7  H    0.472890  -0.002280  -0.000101  -0.001228  -0.000075   0.000004
     8  H   -0.002280   0.470529   0.000009  -0.000101   0.000864  -0.000038
     9  H   -0.000101   0.000009   0.470529  -0.002280   0.000864  -0.000682
    10  H   -0.001228  -0.000101  -0.002280   0.472891  -0.000075  -0.000105
    11  O   -0.000075   0.000864   0.000864  -0.000075   8.413117  -0.028955
    12  H    0.000004  -0.000038  -0.000682  -0.000105  -0.028955   0.495893
    13  H   -0.000105  -0.000682  -0.000038   0.000004  -0.028956  -0.000721
              13
     1  C    0.003277
     2  C   -0.041036
     3  C    0.395725
     4  C   -0.017499
     5  C    0.000920
     6  C    0.000183
     7  H   -0.000105
     8  H   -0.000682
     9  H   -0.000038
    10  H    0.000004
    11  O   -0.028956
    12  H   -0.000721
    13  H    0.495894
 Mulliken charges:
               1
     1  C   -0.196376
     2  C   -0.176630
     3  C    0.044489
     4  C    0.044486
     5  C   -0.176628
     6  C   -0.196376
     7  H    0.203158
     8  H    0.205762
     9  H    0.205762
    10  H    0.203158
    11  O   -0.546871
    12  H    0.193033
    13  H    0.193033
 Sum of Mulliken charges =   0.00000
 Mulliken charges with hydrogens summed into heavy atoms:
               1
     1  C    0.006782
     2  C    0.029132
     3  C    0.237522
     4  C    0.237520
     5  C    0.029133
     6  C    0.006781
    11  O   -0.546871
 Electronic spatial extent (au):  <R**2>=            573.4631
 Charge=              0.0000 electrons
 Dipole moment (field-independent basis, Debye):
    X=             -1.1582    Y=              0.0000    Z=             -1.9647  Tot=              2.2807
 Quadrupole moment (field-independent basis, Debye-Ang):
   XX=            -38.7936   YY=            -35.3246   ZZ=            -44.4824
   XY=              0.0000   XZ=             -4.4267   YZ=              0.0000
 Traceless Quadrupole moment (field-independent basis, Debye-Ang):
   XX=              0.7400   YY=              4.2089   ZZ=             -4.9489
   XY=              0.0000   XZ=             -4.4267   YZ=              0.0000
 Octapole moment (field-independent basis, Debye-Ang**2):
  XXX=             -4.4078  YYY=              0.0000  ZZZ=              1.3235  XYY=              2.9085
  XXY=              0.0000  XXZ=             -2.9289  XZZ=              3.1191  YZZ=              0.0000
  YYZ=             -1.4892  XYZ=              0.0000
 Hexadecapole moment (field-independent basis, Debye-Ang**3):
 XXXX=           -351.4787 YYYY=           -278.0026 ZZZZ=            -80.1860 XXXY=              0.0000
 XXXZ=            -12.6790 YYYX=              0.0001 YYYZ=              0.0002 ZZZX=              0.5880
 ZZZY=              0.0001 XXYY=           -103.8130 XXZZ=            -79.5472 YYZZ=            -67.6108
 XXYZ=              0.0001 YYXZ=             -2.0854 ZZXY=              0.0000
 N-N= 2.825310790290D+02 E-N=-1.279518204689D+03  KE= 3.051643540663D+02
 1\1\GINC-QC0019\FOpt\RHF\6-31G(d)\C6H6O1\ELIOT\05-Oct-2018\0\\# opt hf
 /6-31g*\\benzox.log\\0,1\C,1.4352242518,-0.7324389442,0.0883218509\C,0
 .3306569206,-1.4273477307,-0.1644965871\C,-0.9687144044,-0.7381964465,
 -0.3307689233\C,-0.9684463949,0.738513015,-0.3307681105\C,0.3311760606
 ,1.4271897004,-0.1644819419\C,1.4354898741,0.731876581,0.0883293307\H,
 2.3738826081,-1.2378343324,0.231248948\H,0.3588935078,-2.4975519424,-0
 .2671974947\H,0.3598106811,2.4973835119,-0.2671853627\H,2.3743324171,1
 .2369309616,0.2312525184\O,-1.4430643756,0.0002445466,0.767270121\H,-1
 .7423260991,1.268182323,-0.859960416\H,-1.7427950472,-1.2675812432,-0.
 8599539326\\Version=ES64L-G09RevE.01\State=1-A\HF=-305.4852273\RMSD=3.
 542e-09\RMSF=8.104e-05\Dipole=0.4527078,-0.0000812,-0.7747137\Quadrupo
 le=0.5752036,3.1292048,-3.7044084,0.0004694,3.2748967,-0.0006098\PG=C0
 1 [X(C6H6O1)]\\@


 ALL OUR THINKING ABOUT NATURE MUST NECESSARILY MOVE IN CIRCLES OR SPIRALS;
 FOR WE CAN ONLY UNDERSTAND NATURE IF WE THINK ABOUT HER, AND WE CAN ONLY
 THINK BECAUSE OUR BRAIN IS BUILT IN ACCORDANCE WITH NATURE'S LAWS.

                                             -- TIMOTHY FERRIS, "GALAXIES"
 Job cpu time:       0 days  0 hours  0 minutes 20.2 seconds.
 File lengths (MBytes):  RWF=      9 Int=      0 D2E=      0 Chk=      2 Scr=      1
 Normal termination of Gaussian 09 at Fri Oct  5 10:06:06 2018.
