 Entering Gaussian System, Link 0=/home/eliot/software/g09E01/g09
 Initial command:
 /home/eliot/software/g09E01/l1.exe "/tmp/Gau-7798.inp" -scrdir="/tmp/"
 Entering Link 1 = /home/eliot/software/g09E01/l1.exe PID=      7800.
  
 Copyright (c) 1988,1990,1992,1993,1995,1998,2003,2009,2015,
            Gaussian, Inc.  All Rights Reserved.
  
 This is part of the Gaussian(R) 09 program.  It is based on
 the Gaussian(R) 03 system (copyright 2003, Gaussian, Inc.),
 the Gaussian(R) 98 system (copyright 1998, Gaussian, Inc.),
 the Gaussian(R) 94 system (copyright 1995, Gaussian, Inc.),
 the Gaussian 92(TM) system (copyright 1992, Gaussian, Inc.),
 the Gaussian 90(TM) system (copyright 1990, Gaussian, Inc.),
 the Gaussian 88(TM) system (copyright 1988, Gaussian, Inc.),
 the Gaussian 86(TM) system (copyright 1986, Carnegie Mellon
 University), and the Gaussian 82(TM) system (copyright 1983,
 Carnegie Mellon University). Gaussian is a federally registered
 trademark of Gaussian, Inc.
  
 This software contains proprietary and confidential information,
 including trade secrets, belonging to Gaussian, Inc.
  
 This software is provided under written license and may be
 used, copied, transmitted, or stored only in accord with that
 written license.
  
 The following legend is applicable only to US Government
 contracts under FAR:
  
                    RESTRICTED RIGHTS LEGEND
  
 Use, reproduction and disclosure by the US Government is
 subject to restrictions as set forth in subparagraphs (a)
 and (c) of the Commercial Computer Software - Restricted
 Rights clause in FAR 52.227-19.
  
 Gaussian, Inc.
 340 Quinnipiac St., Bldg. 40, Wallingford CT 06492
  
  
 ---------------------------------------------------------------
 Warning -- This program may not be used in any manner that
 competes with the business of Gaussian, Inc. or will provide
 assistance to any competitor of Gaussian, Inc.  The licensee
 of this program is prohibited from giving any competitor of
 Gaussian, Inc. access to this program.  By using this program,
 the user acknowledges that Gaussian, Inc. is engaged in the
 business of creating and licensing software in the field of
 computational chemistry and represents and warrants to the
 licensee that it is not a competitor of Gaussian, Inc. and that
 it will not use this program in any manner prohibited above.
 ---------------------------------------------------------------
  

 Cite this work as:
 Gaussian 09, Revision E.01,
 M. J. Frisch, G. W. Trucks, H. B. Schlegel, G. E. Scuseria, 
 M. A. Robb, J. R. Cheeseman, G. Scalmani, V. Barone, B. Mennucci, 
 G. A. Petersson, H. Nakatsuji, M. Caricato, X. Li, H. P. Hratchian, 
 A. F. Izmaylov, J. Bloino, G. Zheng, J. L. Sonnenberg, M. Hada, 
 M. Ehara, K. Toyota, R. Fukuda, J. Hasegawa, M. Ishida, T. Nakajima, 
 Y. Honda, O. Kitao, H. Nakai, T. Vreven, J. A. Montgomery, Jr., 
 J. E. Peralta, F. Ogliaro, M. Bearpark, J. J. Heyd, E. Brothers, 
 K. N. Kudin, V. N. Staroverov, T. Keith, R. Kobayashi, J. Normand, 
 K. Raghavachari, A. Rendell, J. C. Burant, S. S. Iyengar, J. Tomasi, 
 M. Cossi, N. Rega, J. M. Millam, M. Klene, J. E. Knox, J. B. Cross, 
 V. Bakken, C. Adamo, J. Jaramillo, R. Gomperts, R. E. Stratmann, 
 O. Yazyev, A. J. Austin, R. Cammi, C. Pomelli, J. W. Ochterski, 
 R. L. Martin, K. Morokuma, V. G. Zakrzewski, G. A. Voth, 
 P. Salvador, J. J. Dannenberg, S. Dapprich, A. D. Daniels, 
 O. Farkas, J. B. Foresman, J. V. Ortiz, J. Cioslowski, 
 and D. J. Fox, Gaussian, Inc., Wallingford CT, 2013.
 
 ******************************************
 Gaussian 09:  ES64L-G09RevE.01 30-Nov-2015
                 5-Oct-2018 
 ******************************************
 %nproc=2
 Will use up to    2 processors via shared memory.
 ---------------
 # opt hf/sto-3g
 ---------------
 1/18=20,19=15,38=1/1,3;
 2/9=110,12=2,17=6,18=5,40=1/2;
 3/6=3,11=9,16=1,25=1,30=1,71=1/1,2,3;
 4//1;
 5/5=2,38=5/2;
 6/7=2,8=2,9=2,10=2,28=1/1;
 7//1,2,3,16;
 1/18=20,19=15/3(2);
 2/9=110/2;
 99//99;
 2/9=110/2;
 3/6=3,11=9,16=1,25=1,30=1,71=1/1,2,3;
 4/5=5,16=3,69=1/1;
 5/5=2,38=5/2;
 7//1,2,3,16;
 1/18=20,19=15/3(-5);
 2/9=110/2;
 6/7=2,8=2,9=2,10=2,19=2,28=1/1;
 99/9=1/99;
 -------------
 benzox-hf.log
 -------------
 Symbolic Z-matrix:
 Charge =  0 Multiplicity = 1
 C                    -1.43478   0.73216   0.10454 
 C                    -0.33131   1.42727  -0.15249 
 C                     0.96754   0.73836  -0.32372 
 C                     0.96755  -0.73835  -0.32373 
 C                    -0.33131  -1.42727  -0.15249 
 C                    -1.43477  -0.73216   0.10454 
 H                    -2.37298   1.23738   0.25105 
 H                    -0.36014   2.49747  -0.25508 
 H                    -0.36013  -2.49747  -0.25509 
 H                    -2.37297  -1.23739   0.25104 
 O                     1.44622   0.        0.77249 
 H                     1.7395   -1.26788  -0.85587 
 H                     1.7395    1.26789  -0.85586 
 

 GradGradGradGradGradGradGradGradGradGradGradGradGradGradGradGradGradGrad
 Berny optimization.
 Initialization pass.
                           ----------------------------
                           !    Initial Parameters    !
                           ! (Angstroms and Degrees)  !
 --------------------------                            --------------------------
 ! Name  Definition              Value          Derivative Info.                !
 --------------------------------------------------------------------------------
 ! R1    R(1,2)                  1.3292         estimate D2E/DX2                !
 ! R2    R(1,6)                  1.4643         estimate D2E/DX2                !
 ! R3    R(1,7)                  1.0756         estimate D2E/DX2                !
 ! R4    R(2,3)                  1.4802         estimate D2E/DX2                !
 ! R5    R(2,8)                  1.0755         estimate D2E/DX2                !
 ! R6    R(3,4)                  1.4767         estimate D2E/DX2                !
 ! R7    R(3,11)                 1.4057         estimate D2E/DX2                !
 ! R8    R(3,13)                 1.0768         estimate D2E/DX2                !
 ! R9    R(4,5)                  1.4802         estimate D2E/DX2                !
 ! R10   R(4,11)                 1.4057         estimate D2E/DX2                !
 ! R11   R(4,12)                 1.0768         estimate D2E/DX2                !
 ! R12   R(5,6)                  1.3292         estimate D2E/DX2                !
 ! R13   R(5,9)                  1.0755         estimate D2E/DX2                !
 ! R14   R(6,10)                 1.0756         estimate D2E/DX2                !
 ! A1    A(2,1,6)              121.5291         estimate D2E/DX2                !
 ! A2    A(2,1,7)              120.3188         estimate D2E/DX2                !
 ! A3    A(6,1,7)              118.0156         estimate D2E/DX2                !
 ! A4    A(1,2,3)              120.4931         estimate D2E/DX2                !
 ! A5    A(1,2,8)              121.1014         estimate D2E/DX2                !
 ! A6    A(3,2,8)              118.3998         estimate D2E/DX2                !
 ! A7    A(2,3,4)              117.7381         estimate D2E/DX2                !
 ! A8    A(2,3,11)             116.9408         estimate D2E/DX2                !
 ! A9    A(2,3,13)             117.2175         estimate D2E/DX2                !
 ! A10   A(4,3,13)             119.456          estimate D2E/DX2                !
 ! A11   A(11,3,13)            113.5508         estimate D2E/DX2                !
 ! A12   A(3,4,5)              117.7373         estimate D2E/DX2                !
 ! A13   A(3,4,12)             119.4573         estimate D2E/DX2                !
 ! A14   A(5,4,11)             116.9399         estimate D2E/DX2                !
 ! A15   A(5,4,12)             117.2172         estimate D2E/DX2                !
 ! A16   A(11,4,12)            113.5515         estimate D2E/DX2                !
 ! A17   A(4,5,6)              120.4927         estimate D2E/DX2                !
 ! A18   A(4,5,9)              118.3993         estimate D2E/DX2                !
 ! A19   A(6,5,9)              121.1023         estimate D2E/DX2                !
 ! A20   A(1,6,5)              121.53           estimate D2E/DX2                !
 ! A21   A(1,6,10)             118.0154         estimate D2E/DX2                !
 ! A22   A(5,6,10)             120.318          estimate D2E/DX2                !
 ! D1    D(6,1,2,3)             -5.7544         estimate D2E/DX2                !
 ! D2    D(6,1,2,8)            173.3619         estimate D2E/DX2                !
 ! D3    D(7,1,2,3)            178.5782         estimate D2E/DX2                !
 ! D4    D(7,1,2,8)             -2.3055         estimate D2E/DX2                !
 ! D5    D(2,1,6,5)             -0.0002         estimate D2E/DX2                !
 ! D6    D(2,1,6,10)          -175.7631         estimate D2E/DX2                !
 ! D7    D(7,1,6,5)            175.7635         estimate D2E/DX2                !
 ! D8    D(7,1,6,10)             0.0007         estimate D2E/DX2                !
 ! D9    D(1,2,3,4)              5.5415         estimate D2E/DX2                !
 ! D10   D(1,2,3,11)           -60.9773         estimate D2E/DX2                !
 ! D11   D(1,2,3,13)           159.0805         estimate D2E/DX2                !
 ! D12   D(8,2,3,4)           -173.5983         estimate D2E/DX2                !
 ! D13   D(8,2,3,11)           119.8829         estimate D2E/DX2                !
 ! D14   D(8,2,3,13)           -20.0594         estimate D2E/DX2                !
 ! D15   D(2,3,4,5)             -0.0007         estimate D2E/DX2                !
 ! D16   D(2,3,4,12)           152.9297         estimate D2E/DX2                !
 ! D17   D(13,3,4,5)          -152.9307         estimate D2E/DX2                !
 ! D18   D(13,3,4,12)           -0.0002         estimate D2E/DX2                !
 ! D19   D(3,4,5,6)             -5.5405         estimate D2E/DX2                !
 ! D20   D(3,4,5,9)            173.5985         estimate D2E/DX2                !
 ! D21   D(11,4,5,6)            60.9779         estimate D2E/DX2                !
 ! D22   D(11,4,5,9)          -119.8831         estimate D2E/DX2                !
 ! D23   D(12,4,5,6)          -159.0803         estimate D2E/DX2                !
 ! D24   D(12,4,5,9)            20.0587         estimate D2E/DX2                !
 ! D25   D(4,5,6,1)              5.7544         estimate D2E/DX2                !
 ! D26   D(4,5,6,10)          -178.5791         estimate D2E/DX2                !
 ! D27   D(9,5,6,1)           -173.3611         estimate D2E/DX2                !
 ! D28   D(9,5,6,10)             2.3054         estimate D2E/DX2                !
 --------------------------------------------------------------------------------
 Trust Radius=3.00D-01 FncErr=1.00D-07 GrdErr=1.00D-07
 Number of steps in this run=     74 maximum allowed number of steps=    100.
 GradGradGradGradGradGradGradGradGradGradGradGradGradGradGradGradGradGrad

                          Input orientation:                          
 ---------------------------------------------------------------------
 Center     Atomic      Atomic             Coordinates (Angstroms)
 Number     Number       Type             X           Y           Z
 ---------------------------------------------------------------------
      1          6           0       -1.434780    0.732160    0.104540
      2          6           0       -0.331310    1.427270   -0.152490
      3          6           0        0.967540    0.738360   -0.323720
      4          6           0        0.967550   -0.738350   -0.323730
      5          6           0       -0.331310   -1.427270   -0.152490
      6          6           0       -1.434770   -0.732160    0.104540
      7          1           0       -2.372980    1.237380    0.251050
      8          1           0       -0.360140    2.497470   -0.255080
      9          1           0       -0.360130   -2.497470   -0.255090
     10          1           0       -2.372970   -1.237390    0.251040
     11          8           0        1.446220    0.000000    0.772490
     12          1           0        1.739500   -1.267880   -0.855870
     13          1           0        1.739500    1.267890   -0.855860
 ---------------------------------------------------------------------
                    Distance matrix (angstroms):
                    1          2          3          4          5
     1  C    0.000000
     2  C    1.329244   0.000000
     3  C    2.440202   1.480178   0.000000
     4  C    2.849036   2.531061   1.476710   0.000000
     5  C    2.438616   2.854540   2.531064   1.480193   0.000000
     6  C    1.464320   2.438612   2.849022   2.440204   1.329235
     7  H    1.075608   2.089813   3.426143   3.923394   3.381068
     8  H    2.097736   1.075492   2.204975   3.498286   3.926186
     9  H    3.422677   3.926187   3.498287   2.204983   1.075493
    10  H    2.186502   3.381069   3.923384   3.426146   2.089801
    11  O    3.046699   2.460142   1.405698   1.405697   2.460142
    12  H    3.872803   3.470855   2.214521   1.076792   2.192807
    13  H    3.359379   2.192803   1.076800   2.214513   3.470860
                    6          7          8          9         10
     6  C    0.000000
     7  H    2.186502   0.000000
     8  H    3.422669   2.428069   0.000000
     9  H    2.097738   4.272803   4.994940   0.000000
    10  H    1.075611   2.474770   4.272800   2.428064   0.000000
    11  O    3.046690   4.048370   3.249030   3.249027   4.048365
    12  H    3.359371   4.941062   4.352849   2.506247   4.258942
    13  H    3.872797   4.258952   2.506251   4.352850   4.941059
                   11         12         13
    11  O    0.000000
    12  H    2.084488   0.000000
    13  H    2.084486   2.535770   0.000000
 Stoichiometry    C6H6O
 Framework group  C1[X(C6H6O)]
 Deg. of freedom    33
 Full point group                 C1      NOp   1
 Largest Abelian subgroup         C1      NOp   1
 Largest concise Abelian subgroup C1      NOp   1
                         Standard orientation:                         
 ---------------------------------------------------------------------
 Center     Atomic      Atomic             Coordinates (Angstroms)
 Number     Number       Type             X           Y           Z
 ---------------------------------------------------------------------
      1          6           0        1.434782   -0.732156    0.104540
      2          6           0        0.331314   -1.427268   -0.152490
      3          6           0       -0.967538   -0.738360   -0.323720
      4          6           0       -0.967550    0.738350   -0.323730
      5          6           0        0.331309    1.427272   -0.152490
      6          6           0        1.434770    0.732164    0.104540
      7          1           0        2.372983   -1.237375    0.251050
      8          1           0        0.360145   -2.497468   -0.255080
      9          1           0        0.360127    2.497472   -0.255090
     10          1           0        2.372969    1.237395    0.251040
     11          8           0       -1.446219   -0.000001    0.772490
     12          1           0       -1.739501    1.267878   -0.855870
     13          1           0       -1.739497   -1.267892   -0.855860
 ---------------------------------------------------------------------
 Rotational constants (GHZ):      4.6714309      3.6042963      2.3023279
 Standard basis: STO-3G (5D, 7F)
 There are    41 symmetry adapted cartesian basis functions of A   symmetry.
 There are    41 symmetry adapted basis functions of A   symmetry.
    41 basis functions,   123 primitive gaussians,    41 cartesian basis functions
    25 alpha electrons       25 beta electrons
       nuclear repulsion energy       282.5309708325 Hartrees.
 NAtoms=   13 NActive=   13 NUniq=   13 SFac= 1.00D+00 NAtFMM=   60 NAOKFM=F Big=F
 Integral buffers will be    131072 words long.
 Raffenetti 1 integral format.
 Two-electron integral symmetry is turned on.
 One-electron integrals computed using PRISM.
 NBasis=    41 RedAO= T EigKep=  1.71D-01  NBF=    41
 NBsUse=    41 1.00D-06 EigRej= -1.00D+00 NBFU=    41
 ExpMin= 1.69D-01 ExpMax= 1.31D+02 ExpMxC= 1.31D+02 IAcc=1 IRadAn=         1 AccDes= 0.00D+00
 Harris functional with IExCor=  205 and IRadAn=       1 diagonalized for initial guess.
 HarFok:  IExCor=  205 AccDes= 0.00D+00 IRadAn=         1 IDoV= 1 UseB2=F ITyADJ=14
 ICtDFT=  3500011 ScaDFX=  1.000000  1.000000  1.000000  1.000000
 FoFCou: FMM=F IPFlag=           0 FMFlag=      100000 FMFlg1=           0
         NFxFlg=           0 DoJE=T BraDBF=F KetDBF=T FulRan=T
         wScrn=  0.000000 ICntrl=     500 IOpCl=  0 I1Cent=   200000004 NGrid=           0
         NMat0=    1 NMatS0=      1 NMatT0=    0 NMatD0=    1 NMtDS0=    0 NMtDT0=    0
 Petite list used in FoFCou.
 Keep R1 ints in memory in canonical form, NReq=1221274.
 Requested convergence on RMS density matrix=1.00D-08 within 128 cycles.
 Requested convergence on MAX density matrix=1.00D-06.
 Requested convergence on             energy=1.00D-06.
 No special actions if energy rises.
 SCF Done:  E(RHF) =  -301.683645219     A.U. after   12 cycles
            NFock= 12  Conv=0.53D-08     -V/T= 2.0081

 **********************************************************************

            Population analysis using the SCF density.

 **********************************************************************

 Orbital symmetries:
       Occupied  (A) (A) (A) (A) (A) (A) (A) (A) (A) (A) (A) (A)
                 (A) (A) (A) (A) (A) (A) (A) (A) (A) (A) (A) (A)
                 (A)
       Virtual   (A) (A) (A) (A) (A) (A) (A) (A) (A) (A) (A) (A)
                 (A) (A) (A) (A)
 The electronic state is 1-A.
 Alpha  occ. eigenvalues --  -20.29218 -11.10262 -11.10256 -11.03778 -11.03762
 Alpha  occ. eigenvalues --  -11.03613 -11.03609  -1.37839  -1.06592  -0.97831
 Alpha  occ. eigenvalues --   -0.89268  -0.81366  -0.76790  -0.69167  -0.63338
 Alpha  occ. eigenvalues --   -0.58937  -0.58532  -0.55806  -0.49098  -0.46657
 Alpha  occ. eigenvalues --   -0.45446  -0.44399  -0.35678  -0.33944  -0.26963
 Alpha virt. eigenvalues --    0.23423   0.35827   0.53045   0.58287   0.61902
 Alpha virt. eigenvalues --    0.62807   0.65227   0.69920   0.70454   0.71784
 Alpha virt. eigenvalues --    0.79739   0.82928   0.86364   0.94512   1.01779
 Alpha virt. eigenvalues --    1.13016
          Condensed to atoms (all electrons):
               1          2          3          4          5          6
     1  C    4.773176   0.587077  -0.029982  -0.007723  -0.029270   0.421056
     2  C    0.587077   4.801374   0.397946  -0.017571  -0.007874  -0.029271
     3  C   -0.029982   0.397946   4.813928   0.272250  -0.017571  -0.007724
     4  C   -0.007723  -0.017571   0.272250   4.813931   0.397942  -0.029982
     5  C   -0.029270  -0.007874  -0.017571   0.397942   4.801374   0.587081
     6  C    0.421056  -0.029271  -0.007724  -0.029982   0.587081   4.773175
     7  H    0.396160  -0.027324   0.001511   0.000032   0.001269  -0.024708
     8  H   -0.026529   0.395690  -0.023717   0.000878   0.000010   0.001443
     9  H    0.001443   0.000010   0.000878  -0.023717   0.395690  -0.026529
    10  H   -0.024708   0.001269   0.000032   0.001511  -0.027325   0.396159
    11  O   -0.000381  -0.016487   0.201664   0.201664  -0.016487  -0.000381
    12  H    0.000053   0.000469  -0.014224   0.386209  -0.025490   0.001209
    13  H    0.001209  -0.025490   0.386208  -0.014224   0.000469   0.000053
               7          8          9         10         11         12
     1  C    0.396160  -0.026529   0.001443  -0.024708  -0.000381   0.000053
     2  C   -0.027324   0.395690   0.000010   0.001269  -0.016487   0.000469
     3  C    0.001511  -0.023717   0.000878   0.000032   0.201664  -0.014224
     4  C    0.000032   0.000878  -0.023717   0.001511   0.201664   0.386209
     5  C    0.001269   0.000010   0.395690  -0.027325  -0.016487  -0.025490
     6  C   -0.024708   0.001443  -0.026529   0.396159  -0.000381   0.001209
     7  H    0.593249  -0.004676  -0.000032  -0.003142  -0.000016   0.000001
     8  H   -0.004676   0.589321   0.000002  -0.000032   0.000251  -0.000014
     9  H   -0.000032   0.000002   0.589320  -0.004676   0.000251  -0.002405
    10  H   -0.003142  -0.000032  -0.004676   0.593253  -0.000016  -0.000035
    11  O   -0.000016   0.000251   0.000251  -0.000016   7.881374  -0.016700
    12  H    0.000001  -0.000014  -0.002405  -0.000035  -0.016700   0.598990
    13  H   -0.000035  -0.002405  -0.000014   0.000001  -0.016700  -0.002190
              13
     1  C    0.001209
     2  C   -0.025490
     3  C    0.386208
     4  C   -0.014224
     5  C    0.000469
     6  C    0.000053
     7  H   -0.000035
     8  H   -0.002405
     9  H   -0.000014
    10  H    0.000001
    11  O   -0.016700
    12  H   -0.002190
    13  H    0.598993
 Mulliken charges:
               1
     1  C   -0.061579
     2  C   -0.059817
     3  C    0.018800
     4  C    0.018800
     5  C   -0.059816
     6  C   -0.061581
     7  H    0.067710
     8  H    0.069778
     9  H    0.069778
    10  H    0.067709
    11  O   -0.218034
    12  H    0.074126
    13  H    0.074125
 Sum of Mulliken charges =   0.00000
 Mulliken charges with hydrogens summed into heavy atoms:
               1
     1  C    0.006131
     2  C    0.009961
     3  C    0.092925
     4  C    0.092926
     5  C    0.009962
     6  C    0.006128
    11  O   -0.218034
 Electronic spatial extent (au):  <R**2>=            568.9482
 Charge=              0.0000 electrons
 Dipole moment (field-independent basis, Debye):
    X=              0.7360    Y=              0.0000    Z=             -1.3102  Tot=              1.5028
 Quadrupole moment (field-independent basis, Debye-Ang):
   XX=            -37.2668   YY=            -35.0491   ZZ=            -40.2112
   XY=              0.0000   XZ=              2.7283   YZ=              0.0000
 Traceless Quadrupole moment (field-independent basis, Debye-Ang):
   XX=              0.2422   YY=              2.4599   ZZ=             -2.7022
   XY=              0.0000   XZ=              2.7283   YZ=              0.0000
 Octapole moment (field-independent basis, Debye-Ang**2):
  XXX=             -1.4612  YYY=              0.0001  ZZZ=              3.5600  XYY=             -2.6657
  XXY=              0.0000  XXZ=             -1.6983  XZZ=             -2.2795  YZZ=              0.0000
  YYZ=              0.1591  XYZ=              0.0000
 Hexadecapole moment (field-independent basis, Debye-Ang**3):
 XXXX=           -332.4163 YYYY=           -272.6274 ZZZZ=            -63.3791 XXXY=             -0.0002
 XXXZ=              3.7847 YYYX=             -0.0001 YYYZ=              0.0000 ZZZX=             -4.7005
 ZZZY=              0.0001 XXYY=           -100.1151 XXZZ=            -70.3853 YYZZ=            -60.2508
 XXYZ=              0.0000 YYXZ=             -0.2811 ZZXY=              0.0000
 N-N= 2.825309708325D+02 E-N=-1.270838497793D+03  KE= 2.992522445472D+02
 Calling FoFJK, ICntrl=      2127 FMM=F ISym2X=0 I1Cent= 0 IOpClX= 0 NMat=1 NMatS=1 NMatT=0.
 ***** Axes restored to original set *****
 -------------------------------------------------------------------
 Center     Atomic                   Forces (Hartrees/Bohr)
 Number     Number              X              Y              Z
 -------------------------------------------------------------------
      1        6           0.011517287    0.009591748   -0.000863669
      2        6          -0.020115105   -0.003536881   -0.000015192
      3        6          -0.001731106    0.029667759   -0.014985082
      4        6          -0.001748859   -0.029670925   -0.014977120
      5        6          -0.020092735    0.003537992   -0.000020907
      6        6           0.011500022   -0.009590994   -0.000861815
      7        1          -0.006483635    0.002466194    0.000665509
      8        1           0.001147618    0.006373574   -0.000639466
      9        1           0.001146296   -0.006372816   -0.000638730
     10        1          -0.006481412   -0.002464196    0.000666002
     11        8           0.019657900    0.000000082    0.050734345
     12        1           0.005844640   -0.006370348   -0.009533850
     13        1           0.005839087    0.006368811   -0.009530025
 -------------------------------------------------------------------
 Cartesian Forces:  Max     0.050734345 RMS     0.013370932

 GradGradGradGradGradGradGradGradGradGradGradGradGradGradGradGradGradGrad
 Berny optimization.
 FormGI is forming the generalized inverse of G from B-inverse, IUseBI=4.
 Internal  Forces:  Max     0.031959123 RMS     0.007649268
 Search for a local minimum.
 Step number   1 out of a maximum of   74
 All quantities printed in internal units (Hartrees-Bohrs-Radians)
 Mixed Optimization -- RFO/linear search
 Second derivative matrix not updated -- first step.
 ITU=  0
     Eigenvalues ---    0.01499   0.01508   0.01861   0.01982   0.02108
     Eigenvalues ---    0.02474   0.02606   0.02965   0.03120   0.14170
     Eigenvalues ---    0.14870   0.15946   0.15969   0.15998   0.15998
     Eigenvalues ---    0.17980   0.18123   0.21819   0.21963   0.29483
     Eigenvalues ---    0.31610   0.33631   0.34223   0.35844   0.36384
     Eigenvalues ---    0.36385   0.36530   0.36530   0.36544   0.36544
     Eigenvalues ---    0.42906   0.56700   0.58574
 RFO step:  Lambda=-1.01261231D-02 EMin= 1.49865399D-02
 Linear search not attempted -- first point.
 Iteration  1 RMS(Cart)=  0.02468239 RMS(Int)=  0.00061703
 Iteration  2 RMS(Cart)=  0.00053439 RMS(Int)=  0.00027549
 Iteration  3 RMS(Cart)=  0.00000037 RMS(Int)=  0.00027549
 Variable       Old X    -DE/DX   Delta X   Delta X   Delta X     New X
                                 (Linear)    (Quad)   (Total)
    R1        2.51191  -0.00488   0.00000  -0.00910  -0.00921   2.50270
    R2        2.76716   0.01078   0.00000   0.02553   0.02533   2.79249
    R3        2.03260   0.00690   0.00000   0.01839   0.01839   2.05099
    R4        2.79713   0.01404   0.00000   0.04109   0.04118   2.83832
    R5        2.03239   0.00637   0.00000   0.01697   0.01697   2.04935
    R6        2.79058   0.02334   0.00000   0.06407   0.06414   2.85472
    R7        2.65638   0.03196   0.00000   0.07168   0.07175   2.72813
    R8        2.03486   0.01203   0.00000   0.03216   0.03216   2.06702
    R9        2.79716   0.01403   0.00000   0.04106   0.04116   2.83832
   R10        2.65638   0.03196   0.00000   0.07168   0.07175   2.72813
   R11        2.03484   0.01203   0.00000   0.03218   0.03218   2.06702
   R12        2.51189  -0.00487   0.00000  -0.00908  -0.00919   2.50270
   R13        2.03239   0.00637   0.00000   0.01697   0.01697   2.04935
   R14        2.03261   0.00690   0.00000   0.01838   0.01838   2.05099
    A1        2.12108   0.00289   0.00000   0.00600   0.00576   2.12684
    A2        2.09996  -0.00057   0.00000   0.00153   0.00155   2.10151
    A3        2.05976  -0.00239   0.00000  -0.00891  -0.00888   2.05088
    A4        2.10300   0.00071   0.00000   0.00408   0.00417   2.10717
    A5        2.11362   0.00096   0.00000   0.00581   0.00573   2.11935
    A6        2.06647  -0.00166   0.00000  -0.00972  -0.00980   2.05667
    A7        2.05492  -0.00370   0.00000  -0.01225  -0.01236   2.04256
    A8        2.04100  -0.00135   0.00000   0.00983   0.00980   2.05080
    A9        2.04583   0.00007   0.00000  -0.00762  -0.00870   2.03713
   A10        2.08490   0.00216   0.00000  -0.00852  -0.00946   2.07544
   A11        1.98184   0.00195   0.00000   0.03315   0.03300   2.01483
   A12        2.05490  -0.00370   0.00000  -0.01224  -0.01235   2.04255
   A13        2.08492   0.00216   0.00000  -0.00854  -0.00947   2.07545
   A14        2.04099  -0.00135   0.00000   0.00984   0.00981   2.05079
   A15        2.04583   0.00007   0.00000  -0.00761  -0.00869   2.03713
   A16        1.98185   0.00195   0.00000   0.03315   0.03299   2.01484
   A17        2.10299   0.00071   0.00000   0.00409   0.00417   2.10717
   A18        2.06646  -0.00166   0.00000  -0.00972  -0.00980   2.05666
   A19        2.11363   0.00096   0.00000   0.00579   0.00572   2.11935
   A20        2.12110   0.00289   0.00000   0.00599   0.00574   2.12684
   A21        2.05976  -0.00239   0.00000  -0.00891  -0.00888   2.05088
   A22        2.09994  -0.00056   0.00000   0.00154   0.00156   2.10151
    D1       -0.10043  -0.00146   0.00000  -0.02660  -0.02663  -0.12707
    D2        3.02574  -0.00113   0.00000  -0.01418  -0.01414   3.01160
    D3        3.11678  -0.00037   0.00000  -0.00437  -0.00436   3.11242
    D4       -0.04024  -0.00004   0.00000   0.00806   0.00813  -0.03211
    D5        0.00000   0.00000   0.00000   0.00001   0.00001   0.00000
    D6       -3.06764   0.00100   0.00000   0.02131   0.02123  -3.04642
    D7        3.06765  -0.00100   0.00000  -0.02131  -0.02123   3.04642
    D8        0.00001   0.00000   0.00000  -0.00001  -0.00001   0.00000
    D9        0.09672   0.00105   0.00000   0.02462   0.02441   0.12113
   D10       -1.06426   0.00007   0.00000   0.02222   0.02238  -1.04188
   D11        2.77648  -0.00163   0.00000  -0.04047  -0.04042   2.73606
   D12       -3.02986   0.00070   0.00000   0.01239   0.01223  -3.01764
   D13        2.09235  -0.00028   0.00000   0.00999   0.01019   2.10254
   D14       -0.35010  -0.00198   0.00000  -0.05269  -0.05261  -0.40271
   D15       -0.00001   0.00000   0.00000   0.00001   0.00001   0.00000
   D16        2.66913  -0.00336   0.00000  -0.06638  -0.06613   2.60300
   D17       -2.66914   0.00336   0.00000   0.06638   0.06613  -2.60301
   D18        0.00000   0.00000   0.00000  -0.00001  -0.00001  -0.00001
   D19       -0.09670  -0.00105   0.00000  -0.02463  -0.02443  -0.12112
   D20        3.02987  -0.00070   0.00000  -0.01239  -0.01223   3.01764
   D21        1.06426  -0.00007   0.00000  -0.02223  -0.02238   1.04188
   D22       -2.09235   0.00028   0.00000  -0.00999  -0.01019  -2.10254
   D23       -2.77648   0.00163   0.00000   0.04047   0.04043  -2.73605
   D24        0.35009   0.00198   0.00000   0.05271   0.05263   0.40272
   D25        0.10043   0.00146   0.00000   0.02660   0.02663   0.12706
   D26       -3.11679   0.00037   0.00000   0.00438   0.00438  -3.11242
   D27       -3.02572   0.00113   0.00000   0.01416   0.01413  -3.01160
   D28        0.04024   0.00004   0.00000  -0.00805  -0.00813   0.03211
         Item               Value     Threshold  Converged?
 Maximum Force            0.031959     0.000450     NO 
 RMS     Force            0.007649     0.000300     NO 
 Maximum Displacement     0.091389     0.001800     NO 
 RMS     Displacement     0.024575     0.001200     NO 
 Predicted change in Energy=-5.297106D-03
 GradGradGradGradGradGradGradGradGradGradGradGradGradGradGradGradGradGrad

                          Input orientation:                          
 ---------------------------------------------------------------------
 Center     Atomic      Atomic             Coordinates (Angstroms)
 Number     Number       Type             X           Y           Z
 ---------------------------------------------------------------------
      1          6           0       -1.436192    0.738861    0.111204
      2          6           0       -0.342774    1.437907   -0.152862
      3          6           0        0.986395    0.755328   -0.305552
      4          6           0        0.986402   -0.755324   -0.305557
      5          6           0       -0.342766   -1.437906   -0.152867
      6          6           0       -1.436189   -0.738862    0.111200
      7          1           0       -2.389183    1.240123    0.247243
      8          1           0       -0.374827    2.515717   -0.268523
      9          1           0       -0.374813   -2.515715   -0.268532
     10          1           0       -2.389177   -1.240129    0.247238
     11          8           0        1.481233    0.000000    0.820851
     12          1           0        1.746908   -1.284184   -0.887264
     13          1           0        1.746902    1.284193   -0.887249
 ---------------------------------------------------------------------
                    Distance matrix (angstroms):
                    1          2          3          4          5
     1  C    0.000000
     2  C    1.324372   0.000000
     3  C    2.458229   1.501972   0.000000
     4  C    2.876672   2.569102   1.510652   0.000000
     5  C    2.450230   2.875813   2.569096   1.501972   0.000000
     6  C    1.477723   2.450227   2.876665   2.458232   1.324374
     7  H    1.085340   2.094515   3.454727   3.960047   3.394076
     8  H    2.104259   1.084471   2.225593   3.543165   3.955444
     9  H    3.444268   3.955443   3.543159   2.225590   1.084471
    10  H    2.200700   3.394071   3.960039   3.454729   2.094516
    11  O    3.092068   2.518471   1.443665   1.443664   2.518466
    12  H    3.901509   3.509401   2.253081   1.093821   2.220293
    13  H    3.380294   2.220293   1.093819   2.253077   3.509395
                    6          7          8          9         10
     6  C    0.000000
     7  H    2.200702   0.000000
     8  H    3.444265   2.439423   0.000000
     9  H    2.104262   4.293021   5.031431   0.000000
    10  H    1.085339   2.480252   4.293016   2.439426   0.000000
    11  O    3.092065   4.104515   3.310668   3.310661   4.104512
    12  H    3.380297   4.976593   4.395889   2.530058   4.289082
    13  H    3.901502   4.289081   2.530060   4.395883   4.976586
                   11         12         13
    11  O    0.000000
    12  H    2.153455   0.000000
    13  H    2.153448   2.568377   0.000000
 Stoichiometry    C6H6O
 Framework group  C1[X(C6H6O)]
 Deg. of freedom    33
 Full point group                 C1      NOp   1
 Largest Abelian subgroup         C1      NOp   1
 Largest concise Abelian subgroup C1      NOp   1
                         Standard orientation:                         
 ---------------------------------------------------------------------
 Center     Atomic      Atomic             Coordinates (Angstroms)
 Number     Number       Type             X           Y           Z
 ---------------------------------------------------------------------
      1          6           0        1.441059   -0.738851    0.116074
      2          6           0        0.350746   -1.437904   -0.160516
      3          6           0       -0.976589   -0.755333   -0.328438
      4          6           0       -0.976606    0.755319   -0.328440
      5          6           0        0.350719    1.437909   -0.160514
      6          6           0        1.441046    0.738872    0.116074
      7          1           0        2.392430   -1.240108    0.263034
      8          1           0        0.384129   -2.515713   -0.275804
      9          1           0        0.384084    2.515718   -0.275801
     10          1           0        2.392408    1.240144    0.263034
     11          8           0       -1.484317   -0.000011    0.792218
     12          1           0       -1.730393    1.284176   -0.918829
     13          1           0       -1.730372   -1.284201   -0.918820
 ---------------------------------------------------------------------
 Rotational constants (GHZ):      4.5540847      3.5029381      2.2511918
 Standard basis: STO-3G (5D, 7F)
 There are    41 symmetry adapted cartesian basis functions of A   symmetry.
 There are    41 symmetry adapted basis functions of A   symmetry.
    41 basis functions,   123 primitive gaussians,    41 cartesian basis functions
    25 alpha electrons       25 beta electrons
       nuclear repulsion energy       278.9004215558 Hartrees.
 NAtoms=   13 NActive=   13 NUniq=   13 SFac= 1.00D+00 NAtFMM=   60 NAOKFM=F Big=F
 Integral buffers will be    131072 words long.
 Raffenetti 1 integral format.
 Two-electron integral symmetry is turned on.
 One-electron integrals computed using PRISM.
 NBasis=    41 RedAO= T EigKep=  1.72D-01  NBF=    41
 NBsUse=    41 1.00D-06 EigRej= -1.00D+00 NBFU=    41
 Initial guess from the checkpoint file:  "/tmp/Gau-7800.chk"
 B after Tr=     0.000000    0.000000    0.000000
         Rot=    0.999995   -0.000001    0.003094   -0.000002 Ang=  -0.35 deg.
 ExpMin= 1.69D-01 ExpMax= 1.31D+02 ExpMxC= 1.31D+02 IAcc=1 IRadAn=         1 AccDes= 0.00D+00
 Harris functional with IExCor=  205 and IRadAn=       1 diagonalized for initial guess.
 HarFok:  IExCor=  205 AccDes= 0.00D+00 IRadAn=         1 IDoV= 1 UseB2=F ITyADJ=14
 ICtDFT=  3500011 ScaDFX=  1.000000  1.000000  1.000000  1.000000
 FoFCou: FMM=F IPFlag=           0 FMFlag=      100000 FMFlg1=           0
         NFxFlg=           0 DoJE=T BraDBF=F KetDBF=T FulRan=T
         wScrn=  0.000000 ICntrl=     500 IOpCl=  0 I1Cent=   200000004 NGrid=           0
         NMat0=    1 NMatS0=      1 NMatT0=    0 NMatD0=    1 NMtDS0=    0 NMtDT0=    0
 Petite list used in FoFCou.
 Keep R1 ints in memory in canonical form, NReq=1221186.
 Requested convergence on RMS density matrix=1.00D-08 within 128 cycles.
 Requested convergence on MAX density matrix=1.00D-06.
 Requested convergence on             energy=1.00D-06.
 No special actions if energy rises.
 SCF Done:  E(RHF) =  -301.687581262     A.U. after   11 cycles
            NFock= 11  Conv=0.22D-08     -V/T= 2.0089
 Calling FoFJK, ICntrl=      2127 FMM=F ISym2X=0 I1Cent= 0 IOpClX= 0 NMat=1 NMatS=1 NMatT=0.
 ***** Axes restored to original set *****
 -------------------------------------------------------------------
 Center     Atomic                   Forces (Hartrees/Bohr)
 Number     Number              X              Y              Z
 -------------------------------------------------------------------
      1        6          -0.001392641    0.000790536    0.000117528
      2        6           0.002882987   -0.000772599    0.001191049
      3        6          -0.000972109   -0.002749617   -0.002449560
      4        6          -0.000973851    0.002749500   -0.002450519
      5        6           0.002880562    0.000774189    0.001191153
      6        6          -0.001390025   -0.000792477    0.000117490
      7        1           0.001383474   -0.001543833   -0.000503193
      8        1           0.000919651   -0.001635405    0.000439211
      9        1           0.000918962    0.001635030    0.000439227
     10        1           0.001383134    0.001543361   -0.000503135
     11        8          -0.001721513    0.000000206   -0.005116241
     12        1          -0.001959586    0.001528830    0.003764209
     13        1          -0.001959044   -0.001527721    0.003762782
 -------------------------------------------------------------------
 Cartesian Forces:  Max     0.005116241 RMS     0.001902449

 GradGradGradGradGradGradGradGradGradGradGradGradGradGradGradGradGradGrad
 Berny optimization.
 Using GEDIIS/GDIIS optimizer.
 FormGI is forming the generalized inverse of G from B-inverse, IUseBI=4.
 Internal  Forces:  Max     0.004103485 RMS     0.001471019
 Search for a local minimum.
 Step number   2 out of a maximum of   74
 All quantities printed in internal units (Hartrees-Bohrs-Radians)
 Mixed Optimization -- RFO/linear search
 Update second derivatives using D2CorX and points    1    2
 DE= -3.94D-03 DEPred=-5.30D-03 R= 7.43D-01
 TightC=F SS=  1.41D+00  RLast= 2.20D-01 DXNew= 5.0454D-01 6.6137D-01
 Trust test= 7.43D-01 RLast= 2.20D-01 DXMaxT set to 5.05D-01
 ITU=  1  0
 Use linear search instead of GDIIS.
     Eigenvalues ---    0.01512   0.01512   0.01878   0.01980   0.02122
     Eigenvalues ---    0.02494   0.02640   0.03006   0.03544   0.13708
     Eigenvalues ---    0.14570   0.15841   0.15912   0.15972   0.16000
     Eigenvalues ---    0.17959   0.18396   0.21782   0.21944   0.29792
     Eigenvalues ---    0.31858   0.33766   0.34579   0.35911   0.36384
     Eigenvalues ---    0.36479   0.36530   0.36538   0.36544   0.38132
     Eigenvalues ---    0.45715   0.56765   0.58437
 RFO step:  Lambda=-2.30687893D-04 EMin= 1.51163900D-02
 Quartic linear search produced a step of -0.17335.
 Iteration  1 RMS(Cart)=  0.00938483 RMS(Int)=  0.00011545
 Iteration  2 RMS(Cart)=  0.00012731 RMS(Int)=  0.00003594
 Iteration  3 RMS(Cart)=  0.00000001 RMS(Int)=  0.00003594
 Variable       Old X    -DE/DX   Delta X   Delta X   Delta X     New X
                                 (Linear)    (Quad)   (Total)
    R1        2.50270  -0.00043   0.00160  -0.00207  -0.00048   2.50222
    R2        2.79249  -0.00144  -0.00439   0.00298  -0.00142   2.79107
    R3        2.05099  -0.00199  -0.00319  -0.00081  -0.00400   2.04699
    R4        2.83832  -0.00401  -0.00714  -0.00190  -0.00904   2.82928
    R5        2.04935  -0.00170  -0.00294  -0.00044  -0.00338   2.04597
    R6        2.85472  -0.00373  -0.01112   0.00344  -0.00767   2.84704
    R7        2.72813  -0.00348  -0.01244   0.00774  -0.00470   2.72343
    R8        2.06702  -0.00410  -0.00558  -0.00286  -0.00844   2.05858
    R9        2.83832  -0.00401  -0.00713  -0.00191  -0.00904   2.82928
   R10        2.72813  -0.00348  -0.01244   0.00774  -0.00470   2.72343
   R11        2.06702  -0.00410  -0.00558  -0.00286  -0.00844   2.05858
   R12        2.50270  -0.00043   0.00159  -0.00207  -0.00048   2.50222
   R13        2.04935  -0.00170  -0.00294  -0.00044  -0.00338   2.04597
   R14        2.05099  -0.00199  -0.00319  -0.00081  -0.00400   2.04699
    A1        2.12684  -0.00071  -0.00100   0.00037  -0.00066   2.12618
    A2        2.10151   0.00104  -0.00027   0.00450   0.00425   2.10576
    A3        2.05088  -0.00032   0.00154  -0.00464  -0.00308   2.04779
    A4        2.10717   0.00029  -0.00072   0.00101   0.00026   2.10743
    A5        2.11935   0.00069  -0.00099   0.00533   0.00435   2.12369
    A6        2.05667  -0.00098   0.00170  -0.00635  -0.00464   2.05203
    A7        2.04256   0.00048   0.00214   0.00012   0.00221   2.04477
    A8        2.05080  -0.00022  -0.00170  -0.00542  -0.00717   2.04363
    A9        2.03713  -0.00003   0.00151   0.00063   0.00204   2.03917
   A10        2.07544   0.00023   0.00164   0.01018   0.01181   2.08725
   A11        2.01483  -0.00055  -0.00572  -0.00818  -0.01396   2.00087
   A12        2.04255   0.00048   0.00214   0.00013   0.00222   2.04477
   A13        2.07545   0.00023   0.00164   0.01018   0.01181   2.08725
   A14        2.05079  -0.00022  -0.00170  -0.00542  -0.00716   2.04363
   A15        2.03713  -0.00003   0.00151   0.00063   0.00204   2.03917
   A16        2.01484  -0.00055  -0.00572  -0.00819  -0.01397   2.00087
   A17        2.10717   0.00029  -0.00072   0.00101   0.00026   2.10743
   A18        2.05666  -0.00098   0.00170  -0.00634  -0.00464   2.05203
   A19        2.11935   0.00069  -0.00099   0.00532   0.00434   2.12369
   A20        2.12684  -0.00072  -0.00100   0.00036  -0.00066   2.12618
   A21        2.05088  -0.00032   0.00154  -0.00464  -0.00308   2.04779
   A22        2.10151   0.00104  -0.00027   0.00450   0.00425   2.10576
    D1       -0.12707   0.00061   0.00462   0.01430   0.01891  -0.10815
    D2        3.01160   0.00048   0.00245   0.01016   0.01258   3.02418
    D3        3.11242   0.00048   0.00076   0.01185   0.01260   3.12502
    D4       -0.03211   0.00034  -0.00141   0.00772   0.00627  -0.02583
    D5        0.00000   0.00000   0.00000   0.00000   0.00000   0.00000
    D6       -3.04642  -0.00020  -0.00368  -0.00286  -0.00650  -3.05292
    D7        3.04642   0.00020   0.00368   0.00286   0.00650   3.05291
    D8        0.00000   0.00000   0.00000   0.00000   0.00000   0.00000
    D9        0.12113  -0.00050  -0.00423  -0.01364  -0.01786   0.10327
   D10       -1.04188  -0.00061  -0.00388  -0.01306  -0.01692  -1.05880
   D11        2.73606   0.00084   0.00701   0.01006   0.01702   2.75308
   D12       -3.01764  -0.00037  -0.00212  -0.00967  -0.01180  -3.02943
   D13        2.10254  -0.00049  -0.00177  -0.00909  -0.01085   2.09169
   D14       -0.40271   0.00097   0.00912   0.01403   0.02309  -0.37962
   D15        0.00000   0.00000   0.00000   0.00000   0.00000   0.00000
   D16        2.60300   0.00130   0.01146   0.02119   0.03275   2.63575
   D17       -2.60301  -0.00130  -0.01146  -0.02118  -0.03274  -2.63576
   D18       -0.00001   0.00000   0.00000   0.00001   0.00001   0.00000
   D19       -0.12112   0.00050   0.00423   0.01364   0.01786  -0.10327
   D20        3.01764   0.00037   0.00212   0.00967   0.01180   3.02944
   D21        1.04188   0.00061   0.00388   0.01306   0.01692   1.05880
   D22       -2.10254   0.00049   0.00177   0.00910   0.01086  -2.09168
   D23       -2.73605  -0.00084  -0.00701  -0.01007  -0.01703  -2.75308
   D24        0.40272  -0.00097  -0.00912  -0.01403  -0.02309   0.37963
   D25        0.12706  -0.00061  -0.00462  -0.01429  -0.01891   0.10816
   D26       -3.11242  -0.00048  -0.00076  -0.01185  -0.01260  -3.12502
   D27       -3.01160  -0.00048  -0.00245  -0.01016  -0.01258  -3.02418
   D28        0.03211  -0.00034   0.00141  -0.00772  -0.00627   0.02583
         Item               Value     Threshold  Converged?
 Maximum Force            0.004103     0.000450     NO 
 RMS     Force            0.001471     0.000300     NO 
 Maximum Displacement     0.028345     0.001800     NO 
 RMS     Displacement     0.009395     0.001200     NO 
 Predicted change in Energy=-2.602377D-04
 GradGradGradGradGradGradGradGradGradGradGradGradGradGradGradGradGradGrad

                          Input orientation:                          
 ---------------------------------------------------------------------
 Center     Atomic      Atomic             Coordinates (Angstroms)
 Number     Number       Type             X           Y           Z
 ---------------------------------------------------------------------
      1          6           0       -1.436505    0.738484    0.107757
      2          6           0       -0.341273    1.436656   -0.149761
      3          6           0        0.980227    0.753299   -0.317799
      4          6           0        0.980230   -0.753292   -0.317804
      5          6           0       -0.341267   -1.436654   -0.149767
      6          6           0       -1.436501   -0.738489    0.107755
      7          1           0       -2.389095    1.235804    0.244189
      8          1           0       -0.365345    2.513945   -0.254978
      9          1           0       -0.365336   -2.513943   -0.254989
     10          1           0       -2.389090   -1.235814    0.244186
     11          8           0        1.477161    0.000000    0.805852
     12          1           0        1.744359   -1.291215   -0.877660
     13          1           0        1.744355    1.291227   -0.877650
 ---------------------------------------------------------------------
                    Distance matrix (angstroms):
                    1          2          3          4          5
     1  C    0.000000
     2  C    1.324119   0.000000
     3  C    2.453958   1.497189   0.000000
     4  C    2.871778   2.563295   1.506591   0.000000
     5  C    2.448896   2.873311   2.563294   1.497190   0.000000
     6  C    1.476973   2.448897   2.871777   2.453958   1.324119
     7  H    1.083222   2.095021   3.449779   3.952809   3.389814
     8  H    2.105047   1.082683   2.216841   3.534029   3.952074
     9  H    3.443439   3.952074   3.534028   2.216842   1.082683
    10  H    2.196334   3.389815   3.952808   3.449779   2.095021
    11  O    3.085797   2.506767   1.441178   1.441177   2.506764
    12  H    3.899823   3.510125   2.253304   1.089354   2.213779
    13  H    3.375562   2.213779   1.089354   2.253302   3.510124
                    6          7          8          9         10
     6  C    0.000000
     7  H    2.196334   0.000000
     8  H    3.443440   2.445073   0.000000
     9  H    2.105046   4.290150   5.027889   0.000000
    10  H    1.083222   2.471618   4.290152   2.445071   0.000000
    11  O    3.085796   4.097636   3.292432   3.292429   4.097634
    12  H    3.375562   4.972908   4.395205   2.516663   4.283340
    13  H    3.899823   4.283341   2.516663   4.395204   4.972908
                   11         12         13
    11  O    0.000000
    12  H    2.138421   0.000000
    13  H    2.138419   2.582442   0.000000
 Stoichiometry    C6H6O
 Framework group  C1[X(C6H6O)]
 Deg. of freedom    33
 Full point group                 C1      NOp   1
 Largest Abelian subgroup         C1      NOp   1
 Largest concise Abelian subgroup C1      NOp   1
                         Standard orientation:                         
 ---------------------------------------------------------------------
 Center     Atomic      Atomic             Coordinates (Angstroms)
 Number     Number       Type             X           Y           Z
 ---------------------------------------------------------------------
      1          6           0        1.440216   -0.738485    0.111836
      2          6           0        0.347005   -1.436655   -0.154133
      3          6           0       -0.973158   -0.753297   -0.332369
      4          6           0       -0.973160    0.753294   -0.332371
      5          6           0        0.347001    1.436655   -0.154133
      6          6           0        1.440213    0.738489    0.111837
      7          1           0        2.391724   -1.235805    0.255619
      8          1           0        0.371888   -2.513944   -0.259163
      9          1           0        0.371881    2.513944   -0.259164
     10          1           0        2.391720    1.235813    0.255621
     11          8           0       -1.478754    0.000000    0.787412
     12          1           0       -1.732942    1.291218   -0.898110
     13          1           0       -1.732940   -1.291223   -0.898105
 ---------------------------------------------------------------------
 Rotational constants (GHZ):      4.5705743      3.5220002      2.2585634
 Standard basis: STO-3G (5D, 7F)
 There are    41 symmetry adapted cartesian basis functions of A   symmetry.
 There are    41 symmetry adapted basis functions of A   symmetry.
    41 basis functions,   123 primitive gaussians,    41 cartesian basis functions
    25 alpha electrons       25 beta electrons
       nuclear repulsion energy       279.4455203644 Hartrees.
 NAtoms=   13 NActive=   13 NUniq=   13 SFac= 1.00D+00 NAtFMM=   60 NAOKFM=F Big=F
 Integral buffers will be    131072 words long.
 Raffenetti 1 integral format.
 Two-electron integral symmetry is turned on.
 One-electron integrals computed using PRISM.
 NBasis=    41 RedAO= T EigKep=  1.72D-01  NBF=    41
 NBsUse=    41 1.00D-06 EigRej= -1.00D+00 NBFU=    41
 Initial guess from the checkpoint file:  "/tmp/Gau-7800.chk"
 B after Tr=     0.000000    0.000000    0.000000
         Rot=    1.000000    0.000000   -0.000468    0.000003 Ang=   0.05 deg.
 ExpMin= 1.69D-01 ExpMax= 1.31D+02 ExpMxC= 1.31D+02 IAcc=1 IRadAn=         1 AccDes= 0.00D+00
 Harris functional with IExCor=  205 and IRadAn=       1 diagonalized for initial guess.
 HarFok:  IExCor=  205 AccDes= 0.00D+00 IRadAn=         1 IDoV= 1 UseB2=F ITyADJ=14
 ICtDFT=  3500011 ScaDFX=  1.000000  1.000000  1.000000  1.000000
 FoFCou: FMM=F IPFlag=           0 FMFlag=      100000 FMFlg1=           0
         NFxFlg=           0 DoJE=T BraDBF=F KetDBF=T FulRan=T
         wScrn=  0.000000 ICntrl=     500 IOpCl=  0 I1Cent=   200000004 NGrid=           0
         NMat0=    1 NMatS0=      1 NMatT0=    0 NMatD0=    1 NMtDS0=    0 NMtDT0=    0
 Petite list used in FoFCou.
 Keep R1 ints in memory in canonical form, NReq=1221186.
 Requested convergence on RMS density matrix=1.00D-08 within 128 cycles.
 Requested convergence on MAX density matrix=1.00D-06.
 Requested convergence on             energy=1.00D-06.
 No special actions if energy rises.
 SCF Done:  E(RHF) =  -301.687818225     A.U. after   10 cycles
            NFock= 10  Conv=0.68D-08     -V/T= 2.0087
 Calling FoFJK, ICntrl=      2127 FMM=F ISym2X=0 I1Cent= 0 IOpClX= 0 NMat=1 NMatS=1 NMatT=0.
 ***** Axes restored to original set *****
 -------------------------------------------------------------------
 Center     Atomic                   Forces (Hartrees/Bohr)
 Number     Number              X              Y              Z
 -------------------------------------------------------------------
      1        6          -0.000130040    0.000228016   -0.000038006
      2        6          -0.000305342   -0.000406262   -0.000605997
      3        6           0.000994235   -0.001181482    0.001241752
      4        6           0.000993557    0.001181014    0.001241945
      5        6          -0.000305082    0.000405703   -0.000606337
      6        6          -0.000130223   -0.000227630   -0.000038213
      7        1           0.000058491   -0.000131359    0.000152952
      8        1           0.000061250   -0.000091925    0.000075348
      9        1           0.000061386    0.000091939    0.000075371
     10        1           0.000058447    0.000131437    0.000153008
     11        8          -0.000728562    0.000000225   -0.000384392
     12        1          -0.000314022    0.000356882   -0.000633640
     13        1          -0.000314095   -0.000356557   -0.000633791
 -------------------------------------------------------------------
 Cartesian Forces:  Max     0.001241945 RMS     0.000538269

 GradGradGradGradGradGradGradGradGradGradGradGradGradGradGradGradGradGrad
 Berny optimization.
 Using GEDIIS/GDIIS optimizer.
 FormGI is forming the generalized inverse of G from B-inverse, IUseBI=4.
 Internal  Forces:  Max     0.001567629 RMS     0.000290907
 Search for a local minimum.
 Step number   3 out of a maximum of   74
 All quantities printed in internal units (Hartrees-Bohrs-Radians)
 Mixed Optimization -- En-DIIS/RFO-DIIS
 Update second derivatives using D2CorX and points    1    2    3
 DE= -2.37D-04 DEPred=-2.60D-04 R= 9.11D-01
 TightC=F SS=  1.41D+00  RLast= 9.18D-02 DXNew= 8.4853D-01 2.7528D-01
 Trust test= 9.11D-01 RLast= 9.18D-02 DXMaxT set to 5.05D-01
 ITU=  1  1  0
 Use linear search instead of GDIIS.
     Eigenvalues ---    0.01496   0.01515   0.01892   0.01978   0.02125
     Eigenvalues ---    0.02496   0.02626   0.02990   0.04456   0.13929
     Eigenvalues ---    0.14746   0.15595   0.15923   0.15986   0.15999
     Eigenvalues ---    0.18039   0.18379   0.21766   0.21960   0.28729
     Eigenvalues ---    0.31808   0.33717   0.34878   0.35894   0.36384
     Eigenvalues ---    0.36494   0.36530   0.36539   0.36544   0.38042
     Eigenvalues ---    0.42988   0.56764   0.58348
 RFO step:  Lambda=-3.73135142D-05 EMin= 1.49596189D-02
 Quartic linear search produced a step of -0.12984.
 Iteration  1 RMS(Cart)=  0.00315949 RMS(Int)=  0.00001158
 Iteration  2 RMS(Cart)=  0.00001133 RMS(Int)=  0.00000376
 Iteration  3 RMS(Cart)=  0.00000000 RMS(Int)=  0.00000376
 Variable       Old X    -DE/DX   Delta X   Delta X   Delta X     New X
                                 (Linear)    (Quad)   (Total)
    R1        2.50222  -0.00007   0.00006  -0.00023  -0.00016   2.50206
    R2        2.79107  -0.00019   0.00018  -0.00113  -0.00094   2.79013
    R3        2.04699  -0.00009   0.00052  -0.00113  -0.00061   2.04639
    R4        2.82928   0.00014   0.00117  -0.00160  -0.00043   2.82885
    R5        2.04597  -0.00010   0.00044  -0.00101  -0.00057   2.04540
    R6        2.84704  -0.00157   0.00100  -0.00595  -0.00495   2.84209
    R7        2.72343  -0.00037   0.00061  -0.00184  -0.00123   2.72220
    R8        2.05858  -0.00007   0.00110  -0.00205  -0.00096   2.05762
    R9        2.82928   0.00014   0.00117  -0.00160  -0.00043   2.82885
   R10        2.72343  -0.00037   0.00061  -0.00184  -0.00123   2.72220
   R11        2.05858  -0.00007   0.00110  -0.00205  -0.00096   2.05762
   R12        2.50222  -0.00007   0.00006  -0.00023  -0.00016   2.50206
   R13        2.04597  -0.00010   0.00044  -0.00101  -0.00057   2.04540
   R14        2.04699  -0.00009   0.00052  -0.00113  -0.00061   2.04639
    A1        2.12618  -0.00025   0.00009  -0.00138  -0.00129   2.12489
    A2        2.10576   0.00024  -0.00055   0.00208   0.00152   2.10728
    A3        2.04779   0.00000   0.00040  -0.00059  -0.00019   2.04760
    A4        2.10743   0.00020  -0.00003   0.00111   0.00107   2.10850
    A5        2.12369  -0.00005  -0.00056   0.00060   0.00003   2.12372
    A6        2.05203  -0.00015   0.00060  -0.00166  -0.00107   2.05096
    A7        2.04477   0.00002  -0.00029   0.00003  -0.00025   2.04452
    A8        2.04363  -0.00036   0.00093  -0.00017   0.00077   2.04440
    A9        2.03917   0.00015  -0.00026   0.00042   0.00017   2.03934
   A10        2.08725  -0.00039  -0.00153  -0.00335  -0.00488   2.08237
   A11        2.00087   0.00037   0.00181   0.00299   0.00481   2.00568
   A12        2.04477   0.00002  -0.00029   0.00004  -0.00025   2.04452
   A13        2.08725  -0.00039  -0.00153  -0.00336  -0.00488   2.08237
   A14        2.04363  -0.00036   0.00093  -0.00017   0.00077   2.04440
   A15        2.03917   0.00015  -0.00026   0.00042   0.00017   2.03934
   A16        2.00087   0.00037   0.00181   0.00299   0.00481   2.00568
   A17        2.10743   0.00020  -0.00003   0.00111   0.00107   2.10850
   A18        2.05203  -0.00015   0.00060  -0.00166  -0.00107   2.05096
   A19        2.12369  -0.00005  -0.00056   0.00060   0.00003   2.12372
   A20        2.12618  -0.00025   0.00009  -0.00138  -0.00129   2.12489
   A21        2.04779   0.00000   0.00040  -0.00059  -0.00019   2.04760
   A22        2.10576   0.00024  -0.00055   0.00208   0.00152   2.10728
    D1       -0.10815  -0.00025  -0.00246  -0.00268  -0.00514  -0.11329
    D2        3.02418  -0.00012  -0.00163   0.00226   0.00063   3.02481
    D3        3.12502  -0.00021  -0.00164  -0.00409  -0.00572   3.11929
    D4       -0.02583  -0.00008  -0.00081   0.00085   0.00004  -0.02579
    D5        0.00000   0.00000   0.00000   0.00000   0.00000   0.00000
    D6       -3.05292   0.00003   0.00084  -0.00150  -0.00066  -3.05357
    D7        3.05291  -0.00003  -0.00084   0.00150   0.00066   3.05357
    D8        0.00000   0.00000   0.00000   0.00000   0.00000   0.00000
    D9        0.10327   0.00026   0.00232   0.00265   0.00497   0.10824
   D10       -1.05880   0.00007   0.00220   0.00168   0.00387  -1.05492
   D11        2.75308  -0.00029  -0.00221  -0.00420  -0.00641   2.74667
   D12       -3.02943   0.00013   0.00153  -0.00211  -0.00057  -3.03000
   D13        2.09169  -0.00005   0.00141  -0.00308  -0.00167   2.09002
   D14       -0.37962  -0.00042  -0.00300  -0.00896  -0.01195  -0.39158
   D15        0.00000   0.00000   0.00000   0.00000   0.00000   0.00000
   D16        2.63575  -0.00041  -0.00425  -0.00591  -0.01016   2.62559
   D17       -2.63576   0.00041   0.00425   0.00591   0.01016  -2.62559
   D18        0.00000   0.00000   0.00000   0.00000   0.00000   0.00000
   D19       -0.10327  -0.00026  -0.00232  -0.00265  -0.00498  -0.10824
   D20        3.02944  -0.00013  -0.00153   0.00211   0.00057   3.03000
   D21        1.05880  -0.00007  -0.00220  -0.00168  -0.00387   1.05493
   D22       -2.09168   0.00005  -0.00141   0.00308   0.00167  -2.09002
   D23       -2.75308   0.00029   0.00221   0.00420   0.00641  -2.74667
   D24        0.37963   0.00042   0.00300   0.00896   0.01195   0.39158
   D25        0.10816   0.00025   0.00245   0.00268   0.00514   0.11329
   D26       -3.12502   0.00021   0.00164   0.00409   0.00573  -3.11929
   D27       -3.02418   0.00012   0.00163  -0.00226  -0.00064  -3.02481
   D28        0.02583   0.00008   0.00081  -0.00085  -0.00004   0.02579
         Item               Value     Threshold  Converged?
 Maximum Force            0.001568     0.000450     NO 
 RMS     Force            0.000291     0.000300     YES
 Maximum Displacement     0.011700     0.001800     NO 
 RMS     Displacement     0.003164     0.001200     NO 
 Predicted change in Energy=-2.412322D-05
 GradGradGradGradGradGradGradGradGradGradGradGradGradGradGradGradGradGrad

                          Input orientation:                          
 ---------------------------------------------------------------------
 Center     Atomic      Atomic             Coordinates (Angstroms)
 Number     Number       Type             X           Y           Z
 ---------------------------------------------------------------------
      1          6           0       -1.436868    0.738235    0.107399
      2          6           0       -0.341126    1.434910   -0.151552
      3          6           0        0.980962    0.751988   -0.314643
      4          6           0        0.980965   -0.751981   -0.314648
      5          6           0       -0.341120   -1.434909   -0.151559
      6          6           0       -1.436865   -0.738239    0.107396
      7          1           0       -2.389023    1.235225    0.245513
      8          1           0       -0.363833    2.511955   -0.256465
      9          1           0       -0.363824   -2.511953   -0.256475
     10          1           0       -2.389018   -1.235234    0.245509
     11          8           0        1.475215    0.000001    0.810234
     12          1           0        1.743229   -1.285024   -0.880693
     13          1           0        1.743224    1.285036   -0.880686
 ---------------------------------------------------------------------
                    Distance matrix (angstroms):
                    1          2          3          4          5
     1  C    0.000000
     2  C    1.324033   0.000000
     3  C    2.454426   1.496963   0.000000
     4  C    2.871373   2.560667   1.503969   0.000000
     5  C    2.447503   2.869819   2.560667   1.496963   0.000000
     6  C    1.476474   2.447504   2.871372   2.454427   1.324032
     7  H    1.082901   2.095571   3.450230   3.952162   3.388390
     8  H    2.104729   1.082381   2.215703   3.530601   3.948323
     9  H    3.442027   3.948323   3.530601   2.215704   1.082381
    10  H    2.195505   3.388390   3.952162   3.450231   2.095571
    11  O    3.085319   2.506609   1.440528   1.440528   2.506609
    12  H    3.896526   3.503458   2.247416   1.088847   2.213281
    13  H    3.374654   2.213281   1.088847   2.247416   3.503458
                    6          7          8          9         10
     6  C    0.000000
     7  H    2.195505   0.000000
     8  H    3.442027   2.446102   0.000000
     9  H    2.104728   4.288912   5.023908   0.000000
    10  H    1.082901   2.470459   4.288913   2.446101   0.000000
    11  O    3.085318   4.095976   3.290874   3.290873   4.095976
    12  H    3.374654   4.969456   4.387073   2.516878   4.283255
    13  H    3.896526   4.283255   2.516877   4.387074   4.969457
                   11         12         13
    11  O    0.000000
    12  H    2.140644   0.000000
    13  H    2.140643   2.570060   0.000000
 Stoichiometry    C6H6O
 Framework group  C1[X(C6H6O)]
 Deg. of freedom    33
 Full point group                 C1      NOp   1
 Largest Abelian subgroup         C1      NOp   1
 Largest concise Abelian subgroup C1      NOp   1
                         Standard orientation:                         
 ---------------------------------------------------------------------
 Center     Atomic      Atomic             Coordinates (Angstroms)
 Number     Number       Type             X           Y           Z
 ---------------------------------------------------------------------
      1          6           0        1.440293   -0.738236    0.112284
      2          6           0        0.346884   -1.434909   -0.156352
      3          6           0       -0.973709   -0.751985   -0.331130
      4          6           0       -0.973709    0.751984   -0.331131
      5          6           0        0.346883    1.434909   -0.156352
      6          6           0        1.440292    0.738237    0.112284
      7          1           0        2.391188   -1.235229    0.258814
      8          1           0        0.370516   -2.511954   -0.261062
      9          1           0        0.370515    2.511954   -0.261061
     10          1           0        2.391187    1.235230    0.258815
     11          8           0       -1.477892    0.000000    0.789333
     12          1           0       -1.730935    1.285029   -0.903896
     13          1           0       -1.730935   -1.285031   -0.903895
 ---------------------------------------------------------------------
 Rotational constants (GHZ):      4.5772159      3.5209998      2.2612140
 Standard basis: STO-3G (5D, 7F)
 There are    41 symmetry adapted cartesian basis functions of A   symmetry.
 There are    41 symmetry adapted basis functions of A   symmetry.
    41 basis functions,   123 primitive gaussians,    41 cartesian basis functions
    25 alpha electrons       25 beta electrons
       nuclear repulsion energy       279.5545300163 Hartrees.
 NAtoms=   13 NActive=   13 NUniq=   13 SFac= 1.00D+00 NAtFMM=   60 NAOKFM=F Big=F
 Integral buffers will be    131072 words long.
 Raffenetti 1 integral format.
 Two-electron integral symmetry is turned on.
 One-electron integrals computed using PRISM.
 NBasis=    41 RedAO= T EigKep=  1.72D-01  NBF=    41
 NBsUse=    41 1.00D-06 EigRej= -1.00D+00 NBFU=    41
 Initial guess from the checkpoint file:  "/tmp/Gau-7800.chk"
 B after Tr=     0.000000    0.000000    0.000000
         Rot=    1.000000    0.000000   -0.000059    0.000000 Ang=  -0.01 deg.
 Keep R1 ints in memory in canonical form, NReq=1221186.
 Requested convergence on RMS density matrix=1.00D-08 within 128 cycles.
 Requested convergence on MAX density matrix=1.00D-06.
 Requested convergence on             energy=1.00D-06.
 No special actions if energy rises.
 SCF Done:  E(RHF) =  -301.687835305     A.U. after    9 cycles
            NFock=  9  Conv=0.56D-08     -V/T= 2.0087
 Calling FoFJK, ICntrl=      2127 FMM=F ISym2X=0 I1Cent= 0 IOpClX= 0 NMat=1 NMatS=1 NMatT=0.
 ***** Axes restored to original set *****
 -------------------------------------------------------------------
 Center     Atomic                   Forces (Hartrees/Bohr)
 Number     Number              X              Y              Z
 -------------------------------------------------------------------
      1        6           0.000239799    0.000247059   -0.000039906
      2        6          -0.000290808    0.000186080    0.000132128
      3        6          -0.000128742    0.000049034    0.000071421
      4        6          -0.000129335   -0.000048999    0.000071615
      5        6          -0.000290507   -0.000186266    0.000132156
      6        6           0.000239669   -0.000246929   -0.000039744
      7        1          -0.000133912    0.000138589   -0.000022500
      8        1          -0.000048492    0.000205438   -0.000011721
      9        1          -0.000048439   -0.000205382   -0.000011797
     10        1          -0.000133900   -0.000138552   -0.000022560
     11        8           0.000199842   -0.000000053   -0.000188264
     12        1           0.000262520   -0.000268977   -0.000035433
     13        1           0.000262305    0.000268958   -0.000035396
 -------------------------------------------------------------------
 Cartesian Forces:  Max     0.000290808 RMS     0.000166919

 GradGradGradGradGradGradGradGradGradGradGradGradGradGradGradGradGradGrad
 Berny optimization.
 Using GEDIIS/GDIIS optimizer.
 FormGI is forming the generalized inverse of G from B-inverse, IUseBI=4.
 Internal  Forces:  Max     0.000612573 RMS     0.000159047
 Search for a local minimum.
 Step number   4 out of a maximum of   74
 All quantities printed in internal units (Hartrees-Bohrs-Radians)
 Mixed Optimization -- En-DIIS/RFO-DIIS
 Swapping is turned off.
 Update second derivatives using D2CorX and points    1    2    3    4
 DE= -1.71D-05 DEPred=-2.41D-05 R= 7.08D-01
 TightC=F SS=  1.41D+00  RLast= 3.03D-02 DXNew= 8.4853D-01 9.0994D-02
 Trust test= 7.08D-01 RLast= 3.03D-02 DXMaxT set to 5.05D-01
 ITU=  1  1  1  0
     Eigenvalues ---    0.01472   0.01515   0.01908   0.01978   0.02126
     Eigenvalues ---    0.02502   0.02633   0.02997   0.04841   0.13859
     Eigenvalues ---    0.14807   0.15618   0.15924   0.15995   0.16000
     Eigenvalues ---    0.18018   0.18517   0.21777   0.21955   0.31277
     Eigenvalues ---    0.31793   0.33717   0.34862   0.36384   0.36448
     Eigenvalues ---    0.36515   0.36530   0.36544   0.36704   0.39586
     Eigenvalues ---    0.45104   0.56753   0.58156
 En-DIIS/RFO-DIIS IScMMF=        0 using points:     4    3
 RFO step:  Lambda=-2.67603662D-06.
 DidBck=T Rises=F RFO-DIIS coefs:    0.77353    0.22647
 Iteration  1 RMS(Cart)=  0.00088663 RMS(Int)=  0.00000161
 Iteration  2 RMS(Cart)=  0.00000040 RMS(Int)=  0.00000156
 Variable       Old X    -DE/DX   Delta X   Delta X   Delta X     New X
                                 (Linear)    (Quad)   (Total)
    R1        2.50206  -0.00005   0.00004  -0.00009  -0.00005   2.50201
    R2        2.79013   0.00048   0.00021   0.00077   0.00098   2.79112
    R3        2.04639   0.00018   0.00014   0.00025   0.00039   2.04678
    R4        2.82885   0.00035   0.00010   0.00073   0.00082   2.82967
    R5        2.04540   0.00021   0.00013   0.00031   0.00044   2.04584
    R6        2.84209   0.00061   0.00112   0.00021   0.00133   2.84342
    R7        2.72220  -0.00004   0.00028  -0.00038  -0.00010   2.72210
    R8        2.05762   0.00033   0.00022   0.00053   0.00075   2.05837
    R9        2.82885   0.00035   0.00010   0.00073   0.00082   2.82967
   R10        2.72220  -0.00004   0.00028  -0.00038  -0.00010   2.72210
   R11        2.05762   0.00033   0.00022   0.00053   0.00075   2.05837
   R12        2.50206  -0.00005   0.00004  -0.00009  -0.00005   2.50201
   R13        2.04540   0.00021   0.00013   0.00031   0.00044   2.04584
   R14        2.04639   0.00018   0.00014   0.00025   0.00039   2.04678
    A1        2.12489   0.00012   0.00029   0.00009   0.00038   2.12527
    A2        2.10728  -0.00013  -0.00034  -0.00017  -0.00052   2.10676
    A3        2.04760   0.00001   0.00004   0.00011   0.00015   2.04776
    A4        2.10850  -0.00011  -0.00024  -0.00011  -0.00035   2.10815
    A5        2.12372   0.00001  -0.00001  -0.00007  -0.00008   2.12364
    A6        2.05096   0.00010   0.00024   0.00018   0.00043   2.05139
    A7        2.04452   0.00000   0.00006   0.00004   0.00009   2.04462
    A8        2.04440   0.00025  -0.00017   0.00061   0.00044   2.04484
    A9        2.03934  -0.00010  -0.00004  -0.00031  -0.00034   2.03899
   A10        2.08237   0.00015   0.00111  -0.00017   0.00094   2.08331
   A11        2.00568  -0.00014  -0.00109   0.00023  -0.00086   2.00482
   A12        2.04452   0.00000   0.00006   0.00004   0.00009   2.04462
   A13        2.08237   0.00015   0.00111  -0.00017   0.00094   2.08331
   A14        2.04440   0.00025  -0.00017   0.00061   0.00044   2.04484
   A15        2.03934  -0.00010  -0.00004  -0.00031  -0.00034   2.03899
   A16        2.00568  -0.00014  -0.00109   0.00023  -0.00086   2.00482
   A17        2.10850  -0.00011  -0.00024  -0.00011  -0.00035   2.10815
   A18        2.05096   0.00010   0.00024   0.00018   0.00043   2.05139
   A19        2.12372   0.00001  -0.00001  -0.00007  -0.00008   2.12364
   A20        2.12489   0.00012   0.00029   0.00009   0.00038   2.12527
   A21        2.04760   0.00001   0.00004   0.00011   0.00015   2.04776
   A22        2.10728  -0.00013  -0.00035  -0.00017  -0.00052   2.10676
    D1       -0.11329   0.00008   0.00116   0.00015   0.00131  -0.11198
    D2        3.02481   0.00004  -0.00014   0.00038   0.00023   3.02504
    D3        3.11929   0.00005   0.00130  -0.00016   0.00114   3.12043
    D4       -0.02579   0.00002  -0.00001   0.00007   0.00006  -0.02573
    D5        0.00000   0.00000   0.00000   0.00000   0.00000   0.00000
    D6       -3.05357  -0.00001   0.00015  -0.00028  -0.00013  -3.05371
    D7        3.05357   0.00001  -0.00015   0.00028   0.00013   3.05371
    D8        0.00000   0.00000   0.00000   0.00000   0.00000   0.00000
    D9        0.10824  -0.00008  -0.00113  -0.00015  -0.00127   0.10697
   D10       -1.05492   0.00000  -0.00088  -0.00021  -0.00109  -1.05601
   D11        2.74667   0.00005   0.00145  -0.00108   0.00037   2.74704
   D12       -3.03000  -0.00005   0.00013  -0.00036  -0.00024  -3.03024
   D13        2.09002   0.00003   0.00038  -0.00043  -0.00005   2.08996
   D14       -0.39158   0.00008   0.00271  -0.00130   0.00141  -0.39017
   D15        0.00000   0.00000   0.00000   0.00000   0.00000   0.00000
   D16        2.62559   0.00006   0.00230  -0.00100   0.00130   2.62689
   D17       -2.62559  -0.00006  -0.00230   0.00100  -0.00130  -2.62689
   D18        0.00000   0.00000   0.00000   0.00000   0.00000   0.00000
   D19       -0.10824   0.00008   0.00113   0.00015   0.00127  -0.10697
   D20        3.03000   0.00005  -0.00013   0.00036   0.00024   3.03024
   D21        1.05493   0.00000   0.00088   0.00021   0.00109   1.05601
   D22       -2.09002  -0.00003  -0.00038   0.00043   0.00005  -2.08996
   D23       -2.74667  -0.00005  -0.00145   0.00108  -0.00037  -2.74704
   D24        0.39158  -0.00008  -0.00271   0.00130  -0.00141   0.39017
   D25        0.11329  -0.00008  -0.00116  -0.00015  -0.00131   0.11198
   D26       -3.11929  -0.00005  -0.00130   0.00016  -0.00114  -3.12043
   D27       -3.02481  -0.00004   0.00014  -0.00038  -0.00023  -3.02504
   D28        0.02579  -0.00002   0.00001  -0.00007  -0.00006   0.02573
         Item               Value     Threshold  Converged?
 Maximum Force            0.000613     0.000450     NO 
 RMS     Force            0.000159     0.000300     YES
 Maximum Displacement     0.002717     0.001800     NO 
 RMS     Displacement     0.000887     0.001200     YES
 Predicted change in Energy=-2.421068D-06
 GradGradGradGradGradGradGradGradGradGradGradGradGradGradGradGradGradGrad

                          Input orientation:                          
 ---------------------------------------------------------------------
 Center     Atomic      Atomic             Coordinates (Angstroms)
 Number     Number       Type             X           Y           Z
 ---------------------------------------------------------------------
      1          6           0       -1.436891    0.738495    0.107251
      2          6           0       -0.341281    1.435585   -0.150997
      3          6           0        0.981022    0.752340   -0.314996
      4          6           0        0.981025   -0.752333   -0.315000
      5          6           0       -0.341275   -1.435584   -0.151004
      6          6           0       -1.436888   -0.738500    0.107247
      7          1           0       -2.389215    1.235725    0.244953
      8          1           0       -0.364376    2.512883   -0.255627
      9          1           0       -0.364367   -2.512881   -0.255638
     10          1           0       -2.389210   -1.235734    0.244948
     11          8           0        1.476331    0.000001    0.809115
     12          1           0        1.743525   -1.286461   -0.880464
     13          1           0        1.743521    1.286474   -0.880457
 ---------------------------------------------------------------------
                    Distance matrix (angstroms):
                    1          2          3          4          5
     1  C    0.000000
     2  C    1.324005   0.000000
     3  C    2.454544   1.497399   0.000000
     4  C    2.871791   2.561713   1.504673   0.000000
     5  C    2.448202   2.871169   2.561713   1.497399   0.000000
     6  C    1.476995   2.448201   2.871790   2.454544   1.324005
     7  H    1.083107   2.095413   3.450464   3.952776   3.389208
     8  H    2.104856   1.082613   2.216558   3.532034   3.949920
     9  H    3.442883   3.949920   3.532034   2.216558   1.082613
    10  H    2.196236   3.389208   3.952776   3.450464   2.095413
    11  O    3.086235   2.507275   1.440475   1.440475   2.507274
    12  H    3.897574   3.505435   2.248972   1.089243   2.213762
    13  H    3.375036   2.213762   1.089243   2.248972   3.505435
                    6          7          8          9         10
     6  C    0.000000
     7  H    2.196236   0.000000
     8  H    3.442883   2.445748   0.000000
     9  H    2.104856   4.289831   5.025764   0.000000
    10  H    1.083107   2.471459   4.289831   2.445748   0.000000
    11  O    3.086235   4.097284   3.291876   3.291875   4.097283
    12  H    3.375036   4.970667   4.389611   2.517483   4.283530
    13  H    3.897573   4.283530   2.517483   4.389611   4.970667
                   11         12         13
    11  O    0.000000
    12  H    2.140340   0.000000
    13  H    2.140340   2.572935   0.000000
 Stoichiometry    C6H6O
 Framework group  C1[X(C6H6O)]
 Deg. of freedom    33
 Full point group                 C1      NOp   1
 Largest Abelian subgroup         C1      NOp   1
 Largest concise Abelian subgroup C1      NOp   1
                         Standard orientation:                         
 ---------------------------------------------------------------------
 Center     Atomic      Atomic             Coordinates (Angstroms)
 Number     Number       Type             X           Y           Z
 ---------------------------------------------------------------------
      1          6           0        1.440463   -0.738497    0.112109
      2          6           0        0.347146   -1.435584   -0.155690
      3          6           0       -0.973674   -0.752337   -0.331219
      4          6           0       -0.973675    0.752336   -0.331219
      5          6           0        0.347144    1.435585   -0.155690
      6          6           0        1.440462    0.738498    0.112109
      7          1           0        2.391548   -1.235729    0.258114
      8          1           0        0.371152   -2.512882   -0.260117
      9          1           0        0.371150    2.512882   -0.260117
     10          1           0        2.391547    1.235731    0.258114
     11          8           0       -1.478771    0.000000    0.788530
     12          1           0       -1.731212    1.286466   -0.903313
     13          1           0       -1.731211   -1.286468   -0.903312
 ---------------------------------------------------------------------
 Rotational constants (GHZ):      4.5747433      3.5201713      2.2597003
 Standard basis: STO-3G (5D, 7F)
 There are    41 symmetry adapted cartesian basis functions of A   symmetry.
 There are    41 symmetry adapted basis functions of A   symmetry.
    41 basis functions,   123 primitive gaussians,    41 cartesian basis functions
    25 alpha electrons       25 beta electrons
       nuclear repulsion energy       279.4969758882 Hartrees.
 NAtoms=   13 NActive=   13 NUniq=   13 SFac= 1.00D+00 NAtFMM=   60 NAOKFM=F Big=F
 Integral buffers will be    131072 words long.
 Raffenetti 1 integral format.
 Two-electron integral symmetry is turned on.
 One-electron integrals computed using PRISM.
 NBasis=    41 RedAO= T EigKep=  1.72D-01  NBF=    41
 NBsUse=    41 1.00D-06 EigRej= -1.00D+00 NBFU=    41
 Initial guess from the checkpoint file:  "/tmp/Gau-7800.chk"
 B after Tr=     0.000000    0.000000    0.000000
         Rot=    1.000000    0.000000    0.000069    0.000000 Ang=   0.01 deg.
 Keep R1 ints in memory in canonical form, NReq=1221186.
 Requested convergence on RMS density matrix=1.00D-08 within 128 cycles.
 Requested convergence on MAX density matrix=1.00D-06.
 Requested convergence on             energy=1.00D-06.
 No special actions if energy rises.
 SCF Done:  E(RHF) =  -301.687837761     A.U. after    9 cycles
            NFock=  9  Conv=0.23D-08     -V/T= 2.0087
 Calling FoFJK, ICntrl=      2127 FMM=F ISym2X=0 I1Cent= 0 IOpClX= 0 NMat=1 NMatS=1 NMatT=0.
 ***** Axes restored to original set *****
 -------------------------------------------------------------------
 Center     Atomic                   Forces (Hartrees/Bohr)
 Number     Number              X              Y              Z
[...]
   A22        2.10676   0.00001  -0.00001   0.00008   0.00007   2.10683
    D1       -0.11198   0.00001   0.00001   0.00043   0.00045  -0.11153
    D2        3.02504   0.00000   0.00001   0.00020   0.00021   3.02525
    D3        3.12043   0.00001   0.00001   0.00037   0.00037   3.12080
    D4       -0.02573   0.00000   0.00000   0.00013   0.00013  -0.02560
    D5        0.00000   0.00000   0.00000   0.00000   0.00000   0.00000
    D6       -3.05371   0.00000  -0.00001  -0.00007  -0.00008  -3.05379
    D7        3.05371   0.00000   0.00001   0.00007   0.00008   3.05379
    D8        0.00000   0.00000   0.00000   0.00000   0.00000   0.00000
    D9        0.10697  -0.00001  -0.00001  -0.00041  -0.00043   0.10654
   D10       -1.05601  -0.00001  -0.00001  -0.00046  -0.00048  -1.05649
   D11        2.74704  -0.00001  -0.00002  -0.00049  -0.00051   2.74652
   D12       -3.03024   0.00000  -0.00001  -0.00019  -0.00020  -3.03043
   D13        2.08996  -0.00001  -0.00001  -0.00024  -0.00025   2.08972
   D14       -0.39017   0.00000  -0.00002  -0.00027  -0.00028  -0.39045
   D15        0.00000   0.00000   0.00000   0.00000   0.00000   0.00000
   D16        2.62689  -0.00001  -0.00001  -0.00014  -0.00015   2.62674
   D17       -2.62689   0.00001   0.00001   0.00014   0.00015  -2.62674
   D18        0.00000   0.00000   0.00000   0.00000   0.00000   0.00000
   D19       -0.10697   0.00001   0.00001   0.00041   0.00043  -0.10654
   D20        3.03024   0.00000   0.00001   0.00019   0.00020   3.03043
   D21        1.05601   0.00001   0.00001   0.00046   0.00048   1.05649
   D22       -2.08996   0.00001   0.00001   0.00024   0.00025  -2.08972
   D23       -2.74704   0.00001   0.00002   0.00049   0.00051  -2.74652
   D24        0.39017   0.00000   0.00002   0.00027   0.00028   0.39045
   D25        0.11198  -0.00001  -0.00001  -0.00043  -0.00045   0.11153
   D26       -3.12043  -0.00001  -0.00001  -0.00037  -0.00037  -3.12080
   D27       -3.02504   0.00000  -0.00001  -0.00020  -0.00021  -3.02525
   D28        0.02573   0.00000   0.00000  -0.00013  -0.00013   0.02560
         Item               Value     Threshold  Converged?
 Maximum Force            0.000031     0.000450     YES
 RMS     Force            0.000011     0.000300     YES
 Maximum Displacement     0.000742     0.001800     YES
 RMS     Displacement     0.000218     0.001200     YES
 Predicted change in Energy=-3.404148D-08
 Optimization completed.
    -- Stationary point found.
                           ----------------------------
                           !   Optimized Parameters   !
                           ! (Angstroms and Degrees)  !
 --------------------------                            --------------------------
 ! Name  Definition              Value          Derivative Info.                !
 --------------------------------------------------------------------------------
 ! R1    R(1,2)                  1.324          -DE/DX =    0.0                 !
 ! R2    R(1,6)                  1.477          -DE/DX =    0.0                 !
 ! R3    R(1,7)                  1.0831         -DE/DX =    0.0                 !
 ! R4    R(2,3)                  1.4974         -DE/DX =    0.0                 !
 ! R5    R(2,8)                  1.0826         -DE/DX =    0.0                 !
 ! R6    R(3,4)                  1.5047         -DE/DX =    0.0                 !
 ! R7    R(3,11)                 1.4405         -DE/DX =    0.0                 !
 ! R8    R(3,13)                 1.0892         -DE/DX =    0.0                 !
 ! R9    R(4,5)                  1.4974         -DE/DX =    0.0                 !
 ! R10   R(4,11)                 1.4405         -DE/DX =    0.0                 !
 ! R11   R(4,12)                 1.0892         -DE/DX =    0.0                 !
 ! R12   R(5,6)                  1.324          -DE/DX =    0.0                 !
 ! R13   R(5,9)                  1.0826         -DE/DX =    0.0                 !
 ! R14   R(6,10)                 1.0831         -DE/DX =    0.0                 !
 ! A1    A(2,1,6)              121.7692         -DE/DX =    0.0                 !
 ! A2    A(2,1,7)              120.7086         -DE/DX =    0.0                 !
 ! A3    A(6,1,7)              117.3277         -DE/DX =    0.0                 !
 ! A4    A(1,2,3)              120.7879         -DE/DX =    0.0                 !
 ! A5    A(1,2,8)              121.6759         -DE/DX =    0.0                 !
 ! A6    A(3,2,8)              117.5357         -DE/DX =    0.0                 !
 ! A7    A(2,3,4)              117.148          -DE/DX =    0.0                 !
 ! A8    A(2,3,11)             117.1607         -DE/DX =    0.0                 !
 ! A9    A(2,3,13)             116.8256         -DE/DX =    0.0                 !
 ! A10   A(4,3,13)             119.3648         -DE/DX =    0.0                 !
 ! A11   A(11,3,13)            114.8678         -DE/DX =    0.0                 !
 ! A12   A(3,4,5)              117.148          -DE/DX =    0.0                 !
 ! A13   A(3,4,12)             119.3648         -DE/DX =    0.0                 !
 ! A14   A(5,4,11)             117.1606         -DE/DX =    0.0                 !
 ! A15   A(5,4,12)             116.8256         -DE/DX =    0.0                 !
 ! A16   A(11,4,12)            114.8679         -DE/DX =    0.0                 !
 ! A17   A(4,5,6)              120.7879         -DE/DX =    0.0                 !
 ! A18   A(4,5,9)              117.5357         -DE/DX =    0.0                 !
 ! A19   A(6,5,9)              121.6759         -DE/DX =    0.0                 !
 ! A20   A(1,6,5)              121.7692         -DE/DX =    0.0                 !
 ! A21   A(1,6,10)             117.3277         -DE/DX =    0.0                 !
 ! A22   A(5,6,10)             120.7086         -DE/DX =    0.0                 !
 ! D1    D(6,1,2,3)             -6.416          -DE/DX =    0.0                 !
 ! D2    D(6,1,2,8)            173.3222         -DE/DX =    0.0                 !
 ! D3    D(7,1,2,3)            178.7877         -DE/DX =    0.0                 !
 ! D4    D(7,1,2,8)             -1.4742         -DE/DX =    0.0                 !
 ! D5    D(2,1,6,5)              0.0            -DE/DX =    0.0                 !
 ! D6    D(2,1,6,10)          -174.9645         -DE/DX =    0.0                 !
 ! D7    D(7,1,6,5)            174.9644         -DE/DX =    0.0                 !
 ! D8    D(7,1,6,10)             0.0            -DE/DX =    0.0                 !
 ! D9    D(1,2,3,4)              6.1289         -DE/DX =    0.0                 !
 ! D10   D(1,2,3,11)           -60.5052         -DE/DX =    0.0                 !
 ! D11   D(1,2,3,13)           157.3936         -DE/DX =    0.0                 !
 ! D12   D(8,2,3,4)           -173.6197         -DE/DX =    0.0                 !
 ! D13   D(8,2,3,11)           119.7462         -DE/DX =    0.0                 !
 ! D14   D(8,2,3,13)           -22.355          -DE/DX =    0.0                 !
 ! D15   D(2,3,4,5)              0.0            -DE/DX =    0.0                 !
 ! D16   D(2,3,4,12)           150.5097         -DE/DX =    0.0                 !
 ! D17   D(13,3,4,5)          -150.5097         -DE/DX =    0.0                 !
 ! D18   D(13,3,4,12)            0.0            -DE/DX =    0.0                 !
 ! D19   D(3,4,5,6)             -6.1289         -DE/DX =    0.0                 !
 ! D20   D(3,4,5,9)            173.6198         -DE/DX =    0.0                 !
 ! D21   D(11,4,5,6)            60.5052         -DE/DX =    0.0                 !
 ! D22   D(11,4,5,9)          -119.7461         -DE/DX =    0.0                 !
 ! D23   D(12,4,5,6)          -157.3936         -DE/DX =    0.0                 !
 ! D24   D(12,4,5,9)            22.3551         -DE/DX =    0.0                 !
 ! D25   D(4,5,6,1)              6.416          -DE/DX =    0.0                 !
 ! D26   D(4,5,6,10)          -178.7877         -DE/DX =    0.0                 !
 ! D27   D(9,5,6,1)           -173.3222         -DE/DX =    0.0                 !
 ! D28   D(9,5,6,10)             1.4742         -DE/DX =    0.0                 !
 --------------------------------------------------------------------------------
 GradGradGradGradGradGradGradGradGradGradGradGradGradGradGradGradGradGrad

                          Input orientation:                          
 ---------------------------------------------------------------------
 Center     Atomic      Atomic             Coordinates (Angstroms)
 Number     Number       Type             X           Y           Z
 ---------------------------------------------------------------------
      1          6           0       -1.436891    0.738495    0.107251
      2          6           0       -0.341281    1.435585   -0.150997
      3          6           0        0.981022    0.752340   -0.314996
      4          6           0        0.981025   -0.752333   -0.315000
      5          6           0       -0.341275   -1.435584   -0.151004
      6          6           0       -1.436888   -0.738500    0.107247
      7          1           0       -2.389215    1.235725    0.244953
      8          1           0       -0.364376    2.512883   -0.255627
      9          1           0       -0.364367   -2.512881   -0.255638
     10          1           0       -2.389210   -1.235734    0.244948
     11          8           0        1.476331    0.000001    0.809115
     12          1           0        1.743525   -1.286461   -0.880464
     13          1           0        1.743521    1.286474   -0.880457
 ---------------------------------------------------------------------
                    Distance matrix (angstroms):
                    1          2          3          4          5
     1  C    0.000000
     2  C    1.324005   0.000000
     3  C    2.454544   1.497399   0.000000
     4  C    2.871791   2.561713   1.504673   0.000000
     5  C    2.448202   2.871169   2.561713   1.497399   0.000000
     6  C    1.476995   2.448201   2.871790   2.454544   1.324005
     7  H    1.083107   2.095413   3.450464   3.952776   3.389208
     8  H    2.104856   1.082613   2.216558   3.532034   3.949920
     9  H    3.442883   3.949920   3.532034   2.216558   1.082613
    10  H    2.196236   3.389208   3.952776   3.450464   2.095413
    11  O    3.086235   2.507275   1.440475   1.440475   2.507274
    12  H    3.897574   3.505435   2.248972   1.089243   2.213762
    13  H    3.375036   2.213762   1.089243   2.248972   3.505435
                    6          7          8          9         10
     6  C    0.000000
     7  H    2.196236   0.000000
     8  H    3.442883   2.445748   0.000000
     9  H    2.104856   4.289831   5.025764   0.000000
    10  H    1.083107   2.471459   4.289831   2.445748   0.000000
    11  O    3.086235   4.097284   3.291876   3.291875   4.097283
    12  H    3.375036   4.970667   4.389611   2.517483   4.283530
    13  H    3.897573   4.283530   2.517483   4.389611   4.970667
                   11         12         13
    11  O    0.000000
    12  H    2.140340   0.000000
    13  H    2.140340   2.572935   0.000000
 Stoichiometry    C6H6O
 Framework group  C1[X(C6H6O)]
 Deg. of freedom    33
 Full point group                 C1      NOp   1
 Largest Abelian subgroup         C1      NOp   1
 Largest concise Abelian subgroup C1      NOp   1
                         Standard orientation:                         
 ---------------------------------------------------------------------
 Center     Atomic      Atomic             Coordinates (Angstroms)
 Number     Number       Type             X           Y           Z
 ---------------------------------------------------------------------
      1          6           0        1.440463   -0.738497    0.112109
      2          6           0        0.347146   -1.435584   -0.155690
      3          6           0       -0.973674   -0.752337   -0.331219
      4          6           0       -0.973675    0.752336   -0.331219
      5          6           0        0.347144    1.435585   -0.155690
      6          6           0        1.440462    0.738498    0.112109
      7          1           0        2.391548   -1.235729    0.258114
      8          1           0        0.371152   -2.512882   -0.260117
      9          1           0        0.371150    2.512882   -0.260117
     10          1           0        2.391547    1.235731    0.258114
     11          8           0       -1.478771    0.000000    0.788530
     12          1           0       -1.731212    1.286466   -0.903313
     13          1           0       -1.731211   -1.286468   -0.903312
 ---------------------------------------------------------------------
 Rotational constants (GHZ):      4.5747433      3.5201713      2.2597003

 **********************************************************************

            Population analysis using the SCF density.

 **********************************************************************

 Orbital symmetries:
       Occupied  (A) (A) (A) (A) (A) (A) (A) (A) (A) (A) (A) (A)
                 (A) (A) (A) (A) (A) (A) (A) (A) (A) (A) (A) (A)
                 (A)
       Virtual   (A) (A) (A) (A) (A) (A) (A) (A) (A) (A) (A) (A)
                 (A) (A) (A) (A)
 The electronic state is 1-A.
 Alpha  occ. eigenvalues --  -20.29034 -11.09730 -11.09717 -11.03810 -11.03791
 Alpha  occ. eigenvalues --  -11.03650 -11.03646  -1.34982  -1.06257  -0.97497
 Alpha  occ. eigenvalues --   -0.88921  -0.80684  -0.76170  -0.68059  -0.62827
 Alpha  occ. eigenvalues --   -0.58117  -0.57700  -0.55494  -0.48175  -0.46086
 Alpha  occ. eigenvalues --   -0.44958  -0.43975  -0.35753  -0.33428  -0.27194
 Alpha virt. eigenvalues --    0.23724   0.35414   0.51707   0.57660   0.60273
 Alpha virt. eigenvalues --    0.60573   0.63006   0.67131   0.69556   0.70870
 Alpha virt. eigenvalues --    0.77581   0.81173   0.85313   0.95186   1.00371
 Alpha virt. eigenvalues --    1.12998
          Condensed to atoms (all electrons):
               1          2          3          4          5          6
     1  C    4.773852   0.589614  -0.029067  -0.007349  -0.028672   0.416018
     2  C    0.589614   4.800194   0.393559  -0.016706  -0.007414  -0.028672
     3  C   -0.029067   0.393559   4.822852   0.275375  -0.016706  -0.007349
     4  C   -0.007349  -0.016706   0.275375   4.822853   0.393559  -0.029067
     5  C   -0.028672  -0.007414  -0.016706   0.393559   4.800195   0.589614
     6  C    0.416018  -0.028672  -0.007349  -0.029067   0.589614   4.773852
     7  H    0.394362  -0.027000   0.001455   0.000030   0.001221  -0.024538
     8  H   -0.026168   0.393699  -0.023559   0.000815   0.000008   0.001402
     9  H    0.001402   0.000008   0.000815  -0.023559   0.393699  -0.026168
    10  H   -0.024538   0.001221   0.000030   0.001455  -0.027000   0.394362
    11  O   -0.000316  -0.014306   0.196893   0.196893  -0.014306  -0.000316
    12  H    0.000053   0.000446  -0.013861   0.382854  -0.024761   0.001131
    13  H    0.001131  -0.024761   0.382854  -0.013861   0.000446   0.000053
               7          8          9         10         11         12
     1  C    0.394362  -0.026168   0.001402  -0.024538  -0.000316   0.000053
     2  C   -0.027000   0.393699   0.000008   0.001221  -0.014306   0.000446
     3  C    0.001455  -0.023559   0.000815   0.000030   0.196893  -0.013861
     4  C    0.000030   0.000815  -0.023559   0.001455   0.196893   0.382854
     5  C    0.001221   0.000008   0.393699  -0.027000  -0.014306  -0.024761
     6  C   -0.024538   0.001402  -0.026168   0.394362  -0.000316   0.001131
     7  H    0.595526  -0.004568  -0.000031  -0.003102  -0.000014   0.000001
     8  H   -0.004568   0.591955   0.000002  -0.000031   0.000215  -0.000013
     9  H   -0.000031   0.000002   0.591955  -0.004568   0.000215  -0.002225
    10  H   -0.003102  -0.000031  -0.004568   0.595526  -0.000014  -0.000033
    11  O   -0.000014   0.000215   0.000215  -0.000014   7.870243  -0.014206
    12  H    0.000001  -0.000013  -0.002225  -0.000033  -0.014206   0.600886
    13  H   -0.000033  -0.002225  -0.000013   0.000001  -0.014206  -0.001996
              13
     1  C    0.001131
     2  C   -0.024761
     3  C    0.382854
     4  C   -0.013861
     5  C    0.000446
     6  C    0.000053
     7  H   -0.000033
     8  H   -0.002225
     9  H   -0.000013
    10  H    0.000001
    11  O   -0.014206
    12  H   -0.001996
    13  H    0.600886
 Mulliken charges:
               1
     1  C   -0.060322
     2  C   -0.059882
     3  C    0.016709
     4  C    0.016709
     5  C   -0.059882
     6  C   -0.060322
     7  H    0.066690
     8  H    0.068469
     9  H    0.068469
    10  H    0.066690
    11  O   -0.206776
    12  H    0.071724
    13  H    0.071724
 Sum of Mulliken charges =   0.00000
 Mulliken charges with hydrogens summed into heavy atoms:
               1
     1  C    0.006367
     2  C    0.008587
     3  C    0.088434
     4  C    0.088434
     5  C    0.008587
     6  C    0.006367
    11  O   -0.206776
 Electronic spatial extent (au):  <R**2>=            578.6046
 Charge=              0.0000 electrons
 Dipole moment (field-independent basis, Debye):
    X=              0.7627    Y=              0.0000    Z=             -1.3425  Tot=              1.5440
 Quadrupole moment (field-independent basis, Debye-Ang):
   XX=            -37.3174   YY=            -34.9912   ZZ=            -40.1228
   XY=              0.0000   XZ=              2.8043   YZ=              0.0000
 Traceless Quadrupole moment (field-independent basis, Debye-Ang):
   XX=              0.1597   YY=              2.4859   ZZ=             -2.6457
   XY=              0.0000   XZ=              2.8043   YZ=              0.0000
 Octapole moment (field-independent basis, Debye-Ang**2):
  XXX=             -1.0854  YYY=              0.0000  ZZZ=              3.5551  XYY=             -2.7744
  XXY=              0.0000  XXZ=             -1.7963  XZZ=             -2.5419  YZZ=              0.0000
  YYZ=              0.0164  XYZ=              0.0000
 Hexadecapole moment (field-independent basis, Debye-Ang**3):
 XXXX=           -338.0562 YYYY=           -276.2774 ZZZZ=            -65.1310 XXXY=              0.0000
 XXXZ=              3.9414 YYYX=              0.0000 YYYZ=              0.0000 ZZZX=             -4.8000
 ZZZY=              0.0000 XXYY=           -101.6669 XXZZ=            -71.3395 YYZZ=            -61.1157
 XXYZ=              0.0000 YYXZ=             -0.1509 ZZXY=              0.0000
 N-N= 2.794969758882D+02 E-N=-1.264855381620D+03  KE= 2.990788906764D+02
 1\1\GINC-QC0019\FOpt\RHF\STO-3G\C6H6O1\ELIOT\05-Oct-2018\0\\# opt hf/s
 to-3g\\benzox-hf.log\\0,1\C,-1.4368912583,0.7384952684,0.1072506137\C,
 -0.3412805437,1.4355850549,-0.1509973577\C,0.9810216788,0.7523399008,-
 0.3149960897\C,0.9810247291,-0.7523331884,-0.3150000283\C,-0.341274994
 7,-1.4355840162,-0.151003965\C,-1.4368883224,-0.7384995234,0.107247429
 1\H,-2.3892149817,1.2357253651,0.2449530477\H,-0.3643762935,2.51288252
 67,-0.2556268996\H,-0.3643667478,-2.5128811357,-0.2556380912\H,-2.3892
 100566,-1.2357339235,0.2449480223\O,1.4763305034,0.0000013941,0.809114
 7154\H,1.7435254877,-1.286461244,-0.8804641685\H,1.7435207997,1.286473
 5213,-0.8804572283\\Version=ES64L-G09RevE.01\State=1-A\HF=-301.6878378
 \RMSD=2.273e-09\RMSF=2.409e-05\Dipole=-0.2954332,0.0000007,-0.5307926\
 Quadrupole=0.1549893,1.8482193,-2.0032086,0.0000013,-2.066449,0.000005
 4\PG=C01 [X(C6H6O1)]\\@


 "WOULD YOU TELL ME PLEASE, WHICH WAY I OUGHT TO WALK FROM HERE?"
 "THAT DEPENDS A GREAT DEAL ON WHERE YOU WANT TO GO," SAID THE CAT.
 "I DON'T MUCH CARE WHERE -- ", SAID ALICE.
 "THEN IT DOESN'T MATTER WHICH WAY YOU WALK," SAID THE CAT.

                                      -- LEWIS CARROLL
 Job cpu time:       0 days  0 hours  0 minutes  5.7 seconds.
 File lengths (MBytes):  RWF=      5 Int=      0 D2E=      0 Chk=      1 Scr=      1
 Normal termination of Gaussian 09 at Fri Oct  5 10:39:56 2018.
