 Entering Gaussian System, Link 0=/home/eliot/software/g09E01/g09
 Initial command:
 /home/eliot/software/g09E01/l1.exe "/tmp/Gau-5777.inp" -scrdir="/tmp/"
 Entering Link 1 = /home/eliot/software/g09E01/l1.exe PID=      5779.
  
 Copyright (c) 1988,1990,1992,1993,1995,1998,2003,2009,2015,
            Gaussian, Inc.  All Rights Reserved.
  
 This is part of the Gaussian(R) 09 program.  It is based on
 the Gaussian(R) 03 system (copyright 2003, Gaussian, Inc.),
 the Gaussian(R) 98 system (copyright 1998, Gaussian, Inc.),
 the Gaussian(R) 94 system (copyright 1995, Gaussian, Inc.),
 the Gaussian 92(TM) system (copyright 1992, Gaussian, Inc.),
 the Gaussian 90(TM) system (copyright 1990, Gaussian, Inc.),
 the Gaussian 88(TM) system (copyright 1988, Gaussian, Inc.),
 the Gaussian 86(TM) system (copyright 1986, Carnegie Mellon
 University), and the Gaussian 82(TM) system (copyright 1983,
 Carnegie Mellon University). Gaussian is a federally registered
 trademark of Gaussian, Inc.
  
 This software contains proprietary and confidential information,
 including trade secrets, belonging to Gaussian, Inc.
  
 This software is provided under written license and may be
 used, copied, transmitted, or stored only in accord with that
 written license.
  
 The following legend is applicable only to US Government
 contracts under FAR:
  
                    RESTRICTED RIGHTS LEGEND
  
 Use, reproduction and disclosure by the US Government is
 subject to restrictions as set forth in subparagraphs (a)
 and (c) of the Commercial Computer Software - Restricted
 Rights clause in FAR 52.227-19.
  
 Gaussian, Inc.
 340 Quinnipiac St., Bldg. 40, Wallingford CT 06492
  
  
 ---------------------------------------------------------------
 Warning -- This program may not be used in any manner that
 competes with the business of Gaussian, Inc. or will provide
 assistance to any competitor of Gaussian, Inc.  The licensee
 of this program is prohibited from giving any competitor of
 Gaussian, Inc. access to this program.  By using this program,
 the user acknowledges that Gaussian, Inc. is engaged in the
 business of creating and licensing software in the field of
 computational chemistry and represents and warrants to the
 licensee that it is not a competitor of Gaussian, Inc. and that
 it will not use this program in any manner prohibited above.
 ---------------------------------------------------------------
  

 Cite this work as:
 Gaussian 09, Revision E.01,
 M. J. Frisch, G. W. Trucks, H. B. Schlegel, G. E. Scuseria, 
 M. A. Robb, J. R. Cheeseman, G. Scalmani, V. Barone, B. Mennucci, 
 G. A. Petersson, H. Nakatsuji, M. Caricato, X. Li, H. P. Hratchian, 
 A. F. Izmaylov, J. Bloino, G. Zheng, J. L. Sonnenberg, M. Hada, 
 M. Ehara, K. Toyota, R. Fukuda, J. Hasegawa, M. Ishida, T. Nakajima, 
 Y. Honda, O. Kitao, H. Nakai, T. Vreven, J. A. Montgomery, Jr., 
 J. E. Peralta, F. Ogliaro, M. Bearpark, J. J. Heyd, E. Brothers, 
 K. N. Kudin, V. N. Staroverov, T. Keith, R. Kobayashi, J. Normand, 
 K. Raghavachari, A. Rendell, J. C. Burant, S. S. Iyengar, J. Tomasi, 
 M. Cossi, N. Rega, J. M. Millam, M. Klene, J. E. Knox, J. B. Cross, 
 V. Bakken, C. Adamo, J. Jaramillo, R. Gomperts, R. E. Stratmann, 
 O. Yazyev, A. J. Austin, R. Cammi, C. Pomelli, J. W. Ochterski, 
 R. L. Martin, K. Morokuma, V. G. Zakrzewski, G. A. Voth, 
 P. Salvador, J. J. Dannenberg, S. Dapprich, A. D. Daniels, 
 O. Farkas, J. B. Foresman, J. V. Ortiz, J. Cioslowski, 
 and D. J. Fox, Gaussian, Inc., Wallingford CT, 2013.
 
 ******************************************
 Gaussian 09:  ES64L-G09RevE.01 30-Nov-2015
                 5-Oct-2018 
 ******************************************
 %nproc=4
 Will use up to    4 processors via shared memory.
 ----------------
 # freq b3lyp/svp
 ----------------
 1/10=4,30=1,38=1/1,3;
 2/12=2,17=6,18=5,40=1/2;
 3/5=18,7=101,11=2,16=1,25=1,30=1,71=2,74=-5,140=1/1,2,3;
 4//1;
 5/5=2,38=5,98=1/2;
 8/6=4,10=90,11=11/1;
 11/6=1,8=1,9=11,15=111,16=1/1,2,10;
 10/6=1/2;
 6/7=2,8=2,9=2,10=2,18=1,28=1/1;
 7/8=1,10=1,25=1/1,2,3,16;
 1/10=4,30=1/3;
 99//99;
 ----------
 benzox.log
 ----------
 Symbolic Z-matrix:
 Charge =  0 Multiplicity = 1
 C                     1.44025  -0.72567   0.12333 
 C                     0.32437  -1.43497  -0.18168 
 C                    -0.97577  -0.7605   -0.31547 
 C                    -0.97526   0.76079  -0.31544 
 C                     0.32503   1.43489  -0.18187 
 C                     1.44055   0.72517   0.12348 
 H                     2.39341  -1.24286   0.2646 
 H                     0.37532  -2.51256  -0.35892 
 H                     0.37613   2.51246  -0.35904 
 H                     2.39394   1.24188   0.26498 
 O                    -1.43286   0.0003    0.79666 
 H                    -1.77525   1.29079  -0.84944 
 H                    -1.77574  -1.29035  -0.84958 
 

 GradGradGradGradGradGradGradGradGradGradGradGradGradGradGradGradGradGrad
 Berny optimization.
 Initialization pass.
 Trust Radius=3.00D-01 FncErr=1.00D-07 GrdErr=1.00D-07
 Number of steps in this run=      2 maximum allowed number of steps=      2.
 GradGradGradGradGradGradGradGradGradGradGradGradGradGradGradGradGradGrad

                          Input orientation:                          
 ---------------------------------------------------------------------
 Center     Atomic      Atomic             Coordinates (Angstroms)
 Number     Number       Type             X           Y           Z
 ---------------------------------------------------------------------
      1          6           0        1.440250   -0.725670    0.123330
      2          6           0        0.324370   -1.434970   -0.181680
      3          6           0       -0.975770   -0.760500   -0.315470
      4          6           0       -0.975260    0.760790   -0.315440
      5          6           0        0.325030    1.434890   -0.181870
      6          6           0        1.440550    0.725170    0.123480
      7          1           0        2.393410   -1.242860    0.264600
      8          1           0        0.375320   -2.512560   -0.358920
      9          1           0        0.376130    2.512460   -0.359040
     10          1           0        2.393940    1.241880    0.264980
     11          8           0       -1.432860    0.000300    0.796660
     12          1           0       -1.775250    1.290790   -0.849440
     13          1           0       -1.775740   -1.290350   -0.849580
 ---------------------------------------------------------------------
                    Distance matrix (angstroms):
                    1          2          3          4          5
     1  C    0.000000
     2  C    1.356955   0.000000
     3  C    2.455791   1.470773   0.000000
     4  C    2.869978   2.555052   1.521290   0.000000
     5  C    2.450486   2.869860   2.555321   1.470716   0.000000
     6  C    1.450840   2.450548   2.870278   2.455618   1.356955
     7  H    1.093598   2.125323   3.452612   3.962196   3.412899
     8  H    2.135326   1.093257   2.212927   3.541296   3.951739
     9  H    3.442458   3.951751   3.541440   2.212804   1.093233
    10  H    2.191082   3.412939   3.962498   3.452513   2.125398
    11  O    3.038942   2.470831   1.422878   1.422852   2.470981
    12  H    3.918141   3.504864   2.265410   1.098199   2.208527
    13  H    3.407053   2.208499   1.098165   2.265667   3.505140
                    6          7          8          9         10
     6  C    0.000000
     7  H    2.191118   0.000000
     8  H    3.442429   2.464468   0.000000
     9  H    2.135467   4.308222   5.025020   0.000000
    10  H    1.093601   2.484740   4.308120   2.464819   0.000000
    11  O    3.038930   4.058186   3.304443   3.304396   4.058153
    12  H    3.407032   5.003818   4.396707   2.522183   4.315839
    13  H    3.918378   4.315723   2.522222   4.396878   5.004065
                   11         12         13
    11  O    0.000000
    12  H    2.119491   0.000000
    13  H    2.119776   2.581140   0.000000
 Stoichiometry    C6H6O
 Framework group  C1[X(C6H6O)]
 Deg. of freedom    33
 Full point group                 C1      NOp   1
 Largest Abelian subgroup         C1      NOp   1
 Largest concise Abelian subgroup C1      NOp   1
                         Standard orientation:                         
 ---------------------------------------------------------------------
 Center     Atomic      Atomic             Coordinates (Angstroms)
 Number     Number       Type             X           Y           Z
 ---------------------------------------------------------------------
      1          6           0       -1.440258    0.725657    0.123330
      2          6           0       -0.324384    1.434967   -0.181680
      3          6           0        0.975762    0.760509   -0.315470
      4          6           0        0.975266   -0.760781   -0.315440
      5          6           0       -0.325018   -1.434893   -0.181870
      6          6           0       -1.440544   -0.725183    0.123480
      7          1           0       -2.393422    1.242839    0.264600
      8          1           0       -0.375344    2.512557   -0.358920
      9          1           0       -0.376108   -2.512463   -0.359040
     10          1           0       -2.393930   -1.241901    0.264980
     11          8           0        1.432859   -0.000287    0.796660
     12          1           0        1.775261   -1.290774   -0.849440
     13          1           0        1.775727    1.290366   -0.849580
 ---------------------------------------------------------------------
 Rotational constants (GHZ):      4.5735044      3.5674010      2.2825095
 Standard basis: SVP (5D, 7F)
 There are   135 symmetry adapted cartesian basis functions of A   symmetry.
 There are   128 symmetry adapted basis functions of A   symmetry.
   128 basis functions,   217 primitive gaussians,   135 cartesian basis functions
    25 alpha electrons       25 beta electrons
       nuclear repulsion energy       280.1111495346 Hartrees.
 NAtoms=   13 NActive=   13 NUniq=   13 SFac= 1.00D+00 NAtFMM=   60 NAOKFM=F Big=F
 Integral buffers will be    131072 words long.
 Raffenetti 2 integral format.
 Two-electron integral symmetry is turned on.
 One-electron integrals computed using PRISM.
 NBasis=   128 RedAO= T EigKep=  3.37D-04  NBF=   128
 NBsUse=   128 1.00D-06 EigRej= -1.00D+00 NBFU=   128
 ExpMin= 1.22D-01 ExpMax= 2.27D+03 ExpMxC= 3.41D+02 IAcc=1 IRadAn=         1 AccDes= 0.00D+00
 Harris functional with IExCor=  402 and IRadAn=       1 diagonalized for initial guess.
 HarFok:  IExCor=  402 AccDes= 0.00D+00 IRadAn=         1 IDoV= 1 UseB2=F ITyADJ=14
 ICtDFT=  3500011 ScaDFX=  1.000000  1.000000  1.000000  1.000000
 FoFCou: FMM=F IPFlag=           0 FMFlag=      100000 FMFlg1=           0
         NFxFlg=           0 DoJE=T BraDBF=F KetDBF=T FulRan=T
         wScrn=  0.000000 ICntrl=     500 IOpCl=  0 I1Cent=   200000004 NGrid=           0
         NMat0=    1 NMatS0=      1 NMatT0=    0 NMatD0=    1 NMtDS0=    0 NMtDT0=    0
 Petite list used in FoFCou.
 Requested convergence on RMS density matrix=1.00D-08 within 128 cycles.
 Requested convergence on MAX density matrix=1.00D-06.
 Requested convergence on             energy=1.00D-06.
 No special actions if energy rises.
 Integral accuracy reduced to 1.0D-05 until final iterations.
 Initial convergence to 1.0D-05 achieved.  Increase integral accuracy.
 SCF Done:  E(RB3LYP) =  -307.172765193     A.U. after   14 cycles
            NFock= 14  Conv=0.55D-08     -V/T= 2.0103
 DoSCS=F DFT=T ScalE2(SS,OS)=  1.000000  1.000000
 Range of M.O.s used for correlation:     1   128
 NBasis=   128 NAE=    25 NBE=    25 NFC=     0 NFV=     0
 NROrb=    128 NOA=    25 NOB=    25 NVA=   103 NVB=   103

 **** Warning!!: The largest alpha MO coefficient is  0.10672875D+02

 Symmetrizing basis deriv contribution to polar:
 IMax=3 JMax=2 DiffMx= 0.00D+00
 G2DrvN: will do    14 centers at a time, making    1 passes.
 Calling FoFCou, ICntrl=  3107 FMM=F I1Cent=   0 AccDes= 0.00D+00.
 End of G2Drv F.D. properties file   721 does not exist.
 End of G2Drv F.D. properties file   722 does not exist.
 End of G2Drv F.D. properties file   788 does not exist.
          IDoAtm=1111111111111
          Differentiating once with respect to electric field.
                with respect to dipole field.
          Differentiating once with respect to nuclear coordinates.
          There are    42 degrees of freedom in the 1st order CPHF.  IDoFFX=6 NUNeed=     3.
     39 vectors produced by pass  0 Test12= 6.13D-15 2.38D-09 XBig12= 9.06D+01 6.95D+00.
 AX will form    39 AO Fock derivatives at one time.
     39 vectors produced by pass  1 Test12= 6.13D-15 2.38D-09 XBig12= 2.13D+01 1.19D+00.
     39 vectors produced by pass  2 Test12= 6.13D-15 2.38D-09 XBig12= 2.66D-01 1.19D-01.
     39 vectors produced by pass  3 Test12= 6.13D-15 2.38D-09 XBig12= 9.02D-04 5.76D-03.
     39 vectors produced by pass  4 Test12= 6.13D-15 2.38D-09 XBig12= 1.75D-06 2.49D-04.
     29 vectors produced by pass  5 Test12= 6.13D-15 2.38D-09 XBig12= 1.55D-09 6.71D-06.
      3 vectors produced by pass  6 Test12= 6.13D-15 2.38D-09 XBig12= 1.30D-12 2.09D-07.
      2 vectors produced by pass  7 Test12= 6.13D-15 2.38D-09 XBig12= 1.17D-15 5.69D-09.
 InvSVY:  IOpt=1 It=  1 EMax= 1.78D-14
 Solved reduced A of dimension   229 with    42 vectors.
 Isotropic polarizability for W=    0.000000       60.44 Bohr**3.
 End of Minotr F.D. properties file   721 does not exist.
 End of Minotr F.D. properties file   722 does not exist.
 End of Minotr F.D. properties file   788 does not exist.

 **********************************************************************

            Population analysis using the SCF density.

 **********************************************************************

 Orbital symmetries:
       Occupied  (A) (A) (A) (A) (A) (A) (A) (A) (A) (A) (A) (A)
                 (A) (A) (A) (A) (A) (A) (A) (A) (A) (A) (A) (A)
                 (A)
       Virtual   (A) (A) (A) (A) (A) (A) (A) (A) (A) (A) (A) (A)
                 (A) (A) (A) (A) (A) (A) (A) (A) (A) (A) (A) (A)
                 (A) (A) (A) (A) (A) (A) (A) (A) (A) (A) (A) (A)
                 (A) (A) (A) (A) (A) (A) (A) (A) (A) (A) (A) (A)
                 (A) (A) (A) (A) (A) (A) (A) (A) (A) (A) (A) (A)
                 (A) (A) (A) (A) (A) (A) (A) (A) (A) (A) (A) (A)
                 (A) (A) (A) (A) (A) (A) (A) (A) (A) (A) (A) (A)
                 (A) (A) (A) (A) (A) (A) (A) (A) (A) (A) (A) (A)
                 (A) (A) (A) (A) (A) (A) (A)
 The electronic state is 1-A.
 Alpha  occ. eigenvalues --  -19.14495 -10.24873 -10.24861 -10.19922 -10.19906
 Alpha  occ. eigenvalues --  -10.19652 -10.19648  -1.07371  -0.82129  -0.75231
 Alpha  occ. eigenvalues --   -0.68660  -0.62804  -0.59163  -0.53896  -0.49184
 Alpha  occ. eigenvalues --   -0.47901  -0.45825  -0.43897  -0.40694  -0.37656
 Alpha  occ. eigenvalues --   -0.36378  -0.35933  -0.28589  -0.27387  -0.23871
 Alpha virt. eigenvalues --   -0.04967   0.03514   0.05288   0.09103   0.09217
 Alpha virt. eigenvalues --    0.12455   0.12765   0.15170   0.16551   0.17427
 Alpha virt. eigenvalues --    0.25616   0.25936   0.27406   0.30699   0.37183
 Alpha virt. eigenvalues --    0.39906   0.41184   0.44129   0.44147   0.44977
 Alpha virt. eigenvalues --    0.48032   0.48350   0.51059   0.51106   0.53232
 Alpha virt. eigenvalues --    0.54101   0.55022   0.59742   0.61651   0.62749
 Alpha virt. eigenvalues --    0.63392   0.65094   0.65916   0.68795   0.69479
 Alpha virt. eigenvalues --    0.71661   0.72095   0.73785   0.77780   0.81320
 Alpha virt. eigenvalues --    0.86458   0.88953   0.94227   0.99647   1.05229
 Alpha virt. eigenvalues --    1.06528   1.13652   1.21388   1.25906   1.30970
 Alpha virt. eigenvalues --    1.31076   1.34462   1.36161   1.44312   1.52605
 Alpha virt. eigenvalues --    1.53901   1.59360   1.63144   1.70325   1.71372
 Alpha virt. eigenvalues --    1.71395   1.72804   1.73559   1.75754   1.77590
 Alpha virt. eigenvalues --    1.78892   1.80384   1.89790   1.92472   1.92756
 Alpha virt. eigenvalues --    1.94630   1.97532   1.97916   2.00147   2.04717
 Alpha virt. eigenvalues --    2.05994   2.08841   2.09783   2.17731   2.22095
 Alpha virt. eigenvalues --    2.26768   2.28645   2.32474   2.37328   2.44189
 Alpha virt. eigenvalues --    2.50718   2.52744   2.57823   2.69378   2.72736
 Alpha virt. eigenvalues --    2.73256   2.73303   2.81934   2.82258   2.85709
 Alpha virt. eigenvalues --    2.91012   3.00761   3.01978   3.14220   3.16363
 Alpha virt. eigenvalues --    3.33315   3.42786   3.53193
          Condensed to atoms (all electrons):
               1          2          3          4          5          6
     1  C    5.032355   0.385676   0.072476  -0.100392   0.044632   0.238613
     2  C    0.385676   5.042027   0.245586   0.044368  -0.080995   0.044599
     3  C    0.072476   0.245586   5.010964   0.063415   0.044426  -0.100415
     4  C   -0.100392   0.044368   0.063415   5.010798   0.245550   0.072522
     5  C    0.044632  -0.080995   0.044426   0.245550   5.042325   0.385384
     6  C    0.238613   0.044599  -0.100415   0.072522   0.385384   5.032565
     7  H    0.430899  -0.067068   0.013527  -0.001539   0.015323  -0.069707
     8  H   -0.066145   0.438596  -0.074977   0.010099  -0.001734   0.014049
     9  H    0.014040  -0.001732   0.010097  -0.074940   0.438621  -0.066165
    10  H   -0.069674   0.015319  -0.001536   0.013521  -0.067070   0.430873
    11  O   -0.000275  -0.044317   0.219180   0.219355  -0.044428  -0.000178
    12  H    0.000873   0.000585  -0.013685   0.385138  -0.052497   0.011136
    13  H    0.011126  -0.052473   0.385144  -0.013690   0.000578   0.000876
               7          8          9         10         11         12
     1  C    0.430899  -0.066145   0.014040  -0.069674  -0.000275   0.000873
     2  C   -0.067068   0.438596  -0.001732   0.015319  -0.044317   0.000585
     3  C    0.013527  -0.074977   0.010097  -0.001536   0.219180  -0.013685
     4  C   -0.001539   0.010099  -0.074940   0.013521   0.219355   0.385138
     5  C    0.015323  -0.001734   0.438621  -0.067070  -0.044428  -0.052497
     6  C   -0.069707   0.014049  -0.066165   0.430873  -0.000178   0.011136
     7  H    0.715720  -0.015198  -0.000286  -0.012440  -0.000253   0.000009
     8  H   -0.015198   0.711623   0.000034  -0.000286   0.002066  -0.000077
     9  H   -0.000286   0.000034   0.711567  -0.015185   0.002063  -0.007648
    10  H   -0.012440  -0.000286  -0.015185   0.715703  -0.000252  -0.000369
    11  O   -0.000253   0.002066   0.002063  -0.000252   8.012010  -0.029351
    12  H    0.000009  -0.000077  -0.007648  -0.000369  -0.029351   0.699428
    13  H   -0.000369  -0.007647  -0.000077   0.000009  -0.029327  -0.004218
              13
     1  C    0.011126
     2  C   -0.052473
     3  C    0.385144
     4  C   -0.013690
     5  C    0.000578
     6  C    0.000876
     7  H   -0.000369
     8  H   -0.007647
     9  H   -0.000077
    10  H    0.000009
    11  O   -0.029327
    12  H   -0.004218
    13  H    0.699385
 Mulliken charges:
               1
     1  C    0.005796
     2  C    0.029831
     3  C    0.125799
     4  C    0.125794
     5  C    0.029884
     6  C    0.005850
     7  H   -0.008620
     8  H   -0.010403
     9  H   -0.010387
    10  H   -0.008613
    11  O   -0.306292
    12  H    0.010677
    13  H    0.010684
 Sum of Mulliken charges =   0.00000
 Mulliken charges with hydrogens summed into heavy atoms:
               1
     1  C   -0.002824
     2  C    0.019428
     3  C    0.136483
     4  C    0.136471
     5  C    0.019497
     6  C   -0.002763
    11  O   -0.306292
 APT charges:
               1
     1  C    0.000089
     2  C   -0.084065
     3  C    0.297239
     4  C    0.297273
     5  C   -0.084156
     6  C    0.000181
     7  H    0.024797
     8  H    0.030997
     9  H    0.031055
    10  H    0.024795
    11  O   -0.509807
    12  H   -0.014229
    13  H   -0.014168
 Sum of APT charges =   0.00000
 APT charges with hydrogens summed into heavy atoms:
               1
     1  C    0.024886
     2  C   -0.053068
     3  C    0.283071
     4  C    0.283044
     5  C   -0.053101
     6  C    0.024976
    11  O   -0.509807
 Electronic spatial extent (au):  <R**2>=            580.5946
 Charge=              0.0000 electrons
 Dipole moment (field-independent basis, Debye):
    X=             -0.8292    Y=              0.0003    Z=             -1.6614  Tot=              1.8568
 Quadrupole moment (field-independent basis, Debye-Ang):
   XX=            -38.9325   YY=            -36.2569   ZZ=            -44.0670
   XY=              0.0012   XZ=             -3.6566   YZ=              0.0000
 Traceless Quadrupole moment (field-independent basis, Debye-Ang):
   XX=              0.8197   YY=              3.4952   ZZ=             -4.3149
   XY=              0.0012   XZ=             -3.6566   YZ=              0.0000
 Octapole moment (field-independent basis, Debye-Ang**2):
  XXX=             -1.1957  YYY=             -0.0029  ZZZ=              2.2600  XYY=              2.6409
  XXY=              0.0032  XXZ=             -2.0562  XZZ=              3.0177  YZZ=             -0.0004
  YYZ=             -1.5055  XYZ=              0.0001
 Hexadecapole moment (field-independent basis, Debye-Ang**3):
 XXXX=           -360.1393 YYYY=           -293.8216 ZZZZ=            -82.9315 XXXY=              0.0025
 XXXZ=             -9.1700 YYYX=             -0.0014 YYYZ=             -0.0005 ZZZX=              2.3037
 ZZZY=             -0.0021 XXYY=           -107.3891 XXZZ=            -80.5017 YYZZ=            -68.8169
 XXYZ=             -0.0022 YYXZ=             -0.7517 ZZXY=              0.0014
 N-N= 2.801111495346D+02 E-N=-1.274035713203D+03  KE= 3.040521481452D+02
  Exact polarizability:  71.242   0.002  74.627  -6.753   0.002  35.458
 Approx polarizability: 112.749   0.006 121.277  -8.528   0.005  57.227
 Calling FoFJK, ICntrl=    100127 FMM=F ISym2X=0 I1Cent= 0 IOpClX= 0 NMat=1 NMatS=1 NMatT=0.
 Full mass-weighted force constant matrix:
 Low frequencies ---   -8.4292    0.0003    0.0007    0.0008    5.8177   10.2153
 Low frequencies ---  256.0151  319.5679  464.4108
 Diagonal vibrational polarizability:
        4.6062430       0.7227565       4.9524275
 Harmonic frequencies (cm**-1), IR intensities (KM/Mole), Raman scattering
 activities (A**4/AMU), depolarization ratios for plane and unpolarized
 incident light, reduced masses (AMU), force constants (mDyne/A),
 and normal coordinates:
                      1                      2                      3
                      A                      A                      A
 Frequencies --    256.0151               319.5679               464.4108
 Red. masses --      4.4165                 2.9293                 2.6103
 Frc consts  --      0.1706                 0.1763                 0.3317
 IR Inten    --      5.6384                 0.0759                 8.6489
  Atom  AN      X      Y      Z        X      Y      Z        X      Y      Z
     1   6    -0.13   0.00  -0.18     0.05  -0.01   0.17    -0.08  -0.02   0.07
     2   6    -0.03   0.00   0.20     0.03  -0.03   0.04    -0.05  -0.11  -0.11
     3   6    -0.02  -0.03   0.02    -0.02  -0.07  -0.17     0.03   0.02   0.09
     4   6    -0.02   0.03   0.02     0.02  -0.07   0.17     0.03  -0.02   0.09
     5   6    -0.03   0.00   0.20    -0.03  -0.03  -0.04    -0.05   0.11  -0.11
     6   6    -0.13   0.00  -0.18    -0.05  -0.01  -0.17    -0.08   0.02   0.07
     7   1    -0.13   0.03  -0.29     0.12   0.03   0.46    -0.10   0.03  -0.17
     8   1     0.04   0.04   0.45     0.06   0.01   0.26    -0.13  -0.19  -0.58
     9   1     0.04  -0.04   0.45    -0.06   0.01  -0.26    -0.13   0.19  -0.58
    10   1    -0.13  -0.03  -0.29    -0.12   0.03  -0.46    -0.10  -0.03  -0.17
    11   8     0.30   0.00  -0.07     0.00   0.17   0.00     0.19   0.00   0.01
    12   1    -0.16   0.00  -0.16     0.05  -0.15   0.30    -0.04  -0.05   0.02
    13   1    -0.16   0.00  -0.16    -0.05  -0.15  -0.30    -0.04   0.05   0.02
                      4                      5                      6
                      A                      A                      A
 Frequencies --    545.0793               618.6973               629.3868
 Red. masses --      6.6507                 2.9309                 3.5245
 Frc consts  --      1.1642                 0.6610                 0.8226
 IR Inten    --      0.5017                 4.1199                 1.1863
  Atom  AN      X      Y      Z        X      Y      Z        X      Y      Z
     1   6     0.22  -0.21  -0.08    -0.10   0.00   0.01    -0.06   0.01  -0.20
     2   6     0.19  -0.07   0.03     0.00  -0.19  -0.06     0.04   0.01   0.21
     3   6     0.26   0.19   0.02     0.08  -0.11  -0.09    -0.04  -0.09  -0.08
     4   6    -0.26   0.19  -0.02     0.08   0.11  -0.09     0.03  -0.09   0.08
     5   6    -0.19  -0.07  -0.03     0.00   0.19  -0.06    -0.04   0.01  -0.21
     6   6    -0.22  -0.21   0.08    -0.10   0.00   0.01     0.06   0.01   0.20
     7   1     0.30  -0.04  -0.18     0.05   0.17   0.36    -0.11  -0.02  -0.45
     8   1    -0.09  -0.07   0.11     0.16  -0.10   0.46     0.12   0.03   0.29
     9   1     0.09  -0.07  -0.11     0.16   0.10   0.46    -0.12   0.03  -0.29
    10   1    -0.30  -0.04   0.18     0.05  -0.17   0.36     0.11  -0.02   0.45
    11   8     0.00   0.14   0.00     0.00   0.00   0.12     0.00   0.11   0.00
    12   1    -0.29   0.11   0.01     0.09  -0.01   0.05     0.11  -0.12   0.22
    13   1     0.29   0.11  -0.01     0.09   0.01   0.05    -0.11  -0.12  -0.23
                      7                      8                      9
                      A                      A                      A
 Frequencies --    705.2892               780.1901               784.1877
 Red. masses --      3.6377                 1.9811                 1.7200
 Frc consts  --      1.0661                 0.7105                 0.6232
 IR Inten    --     20.5361                64.5253                 0.5062
  Atom  AN      X      Y      Z        X      Y      Z        X      Y      Z
     1   6     0.07   0.04  -0.02    -0.03   0.00  -0.03     0.00  -0.03  -0.10
     2   6    -0.05   0.13  -0.15    -0.06   0.06  -0.07    -0.03   0.04  -0.08
     3   6    -0.13  -0.11   0.03     0.07   0.12   0.07    -0.01   0.04  -0.07
     4   6    -0.13   0.11   0.03     0.07  -0.12   0.07     0.01   0.04   0.07
     5   6    -0.05  -0.13  -0.15    -0.06  -0.06  -0.07     0.03   0.04   0.08
     6   6     0.07  -0.04  -0.02    -0.03   0.00  -0.03     0.00  -0.03   0.10
     7   1     0.06  -0.09   0.37     0.02  -0.02   0.44     0.06  -0.03   0.28
     8   1     0.08   0.18   0.11    -0.08   0.13   0.29     0.04   0.16   0.60
     9   1     0.08  -0.18   0.11    -0.08  -0.13   0.30    -0.04   0.16  -0.59
    10   1     0.06   0.09   0.37     0.02   0.02   0.44    -0.06  -0.03  -0.27
    11   8     0.17   0.00   0.17     0.04   0.00  -0.08     0.00  -0.10   0.00
    12   1    -0.16   0.34  -0.23     0.11  -0.26   0.27    -0.08   0.01  -0.05
    13   1    -0.16  -0.34  -0.23     0.11   0.26   0.27     0.08   0.01   0.05
                     10                     11                     12
                      A                      A                      A
 Frequencies --    860.4588               946.0188               971.7829
 Red. masses --      3.0279                 2.9616                 6.2547
 Frc consts  --      1.3209                 1.5616                 3.4801
 IR Inten    --      0.0301                16.2723                 7.0644
  Atom  AN      X      Y      Z        X      Y      Z        X      Y      Z
     1   6    -0.05   0.06  -0.04    -0.08   0.12   0.10     0.27  -0.13  -0.04
     2   6     0.02  -0.13  -0.07    -0.06   0.15  -0.03     0.02   0.20  -0.03
     3   6     0.01  -0.07   0.19     0.11  -0.02  -0.12    -0.25  -0.13   0.14
     4   6    -0.01  -0.07  -0.19     0.11   0.02  -0.12     0.25  -0.13  -0.14
     5   6    -0.02  -0.13   0.07    -0.06  -0.15  -0.03    -0.02   0.20   0.03
     6   6     0.05   0.06   0.04    -0.08  -0.12   0.10    -0.27  -0.13   0.04
     7   1     0.03   0.13   0.21    -0.20   0.07  -0.49     0.33  -0.02  -0.02
     8   1     0.33  -0.04   0.42    -0.02   0.18   0.09     0.01   0.19  -0.09
     9   1    -0.33  -0.04  -0.42    -0.02  -0.18   0.09    -0.01   0.19   0.09
    10   1    -0.03   0.13  -0.21    -0.20  -0.07  -0.49    -0.33  -0.02   0.01
    11   8     0.00   0.18   0.00     0.03   0.00   0.10     0.00   0.07   0.00
    12   1     0.10   0.13  -0.20     0.22  -0.10   0.16     0.28  -0.12  -0.13
    13   1    -0.10   0.13   0.20     0.22   0.10   0.16    -0.28  -0.12   0.13
                     13                     14                     15
                      A                      A                      A
 Frequencies --    982.3419               987.8973              1007.0468
 Red. masses --      1.5979                 1.9083                 1.3034
 Frc consts  --      0.9085                 1.0973                 0.7788
 IR Inten    --      3.2757                 6.9067                 0.1382
  Atom  AN      X      Y      Z        X      Y      Z        X      Y      Z
     1   6     0.09  -0.07   0.05     0.04   0.02   0.01    -0.02   0.00  -0.10
     2   6    -0.04  -0.06  -0.07     0.05  -0.10   0.01     0.02  -0.01   0.06
     3   6    -0.04   0.01   0.02    -0.12   0.05  -0.10    -0.01   0.01  -0.01
     4   6    -0.04  -0.01   0.02     0.12   0.05   0.10     0.01   0.01   0.01
     5   6    -0.04   0.05  -0.07    -0.05  -0.10  -0.01    -0.02  -0.01  -0.06
     6   6     0.09   0.07   0.05    -0.04   0.02  -0.01     0.02   0.00   0.10
     7   1    -0.04  -0.19  -0.44     0.12   0.20  -0.19     0.11   0.05   0.58
     8   1    -0.08   0.02   0.46     0.14  -0.10  -0.02    -0.03  -0.08  -0.35
     9   1    -0.08  -0.02   0.46    -0.14  -0.10   0.01     0.03  -0.08   0.35
    10   1    -0.04   0.19  -0.44    -0.11   0.20   0.19    -0.11   0.05  -0.58
    11   8     0.01   0.00  -0.01     0.00  -0.04   0.00     0.00   0.00   0.00
    12   1    -0.07  -0.11   0.09     0.12   0.46  -0.33     0.01   0.07  -0.05
    13   1    -0.07   0.12   0.09    -0.12   0.46   0.33    -0.01   0.07   0.05
                     16                     17                     18
                      A                      A                      A
 Frequencies --   1017.7045              1051.5754              1129.2359
 Red. masses --      1.9802                 1.3111                 1.3541
 Frc consts  --      1.2084                 0.8542                 1.0174
 IR Inten    --     18.9545                 8.0610                 0.1914
  Atom  AN      X      Y      Z        X      Y      Z        X      Y      Z
     1   6     0.05  -0.11  -0.04     0.01   0.05   0.00     0.02   0.02  -0.01
     2   6    -0.05   0.01   0.07     0.03   0.00   0.00     0.00  -0.06   0.00
     3   6     0.01  -0.02  -0.11    -0.09  -0.03  -0.02    -0.04   0.07   0.05
     4   6     0.01   0.02  -0.11    -0.09   0.03  -0.02     0.04   0.07  -0.05
     5   6    -0.05  -0.01   0.07     0.03   0.00   0.00     0.00  -0.06   0.00
     6   6     0.05   0.11  -0.04     0.01  -0.05   0.00    -0.02   0.02   0.01
     7   1    -0.03  -0.32   0.18     0.04   0.09   0.00     0.14   0.24   0.00
     8   1    -0.41  -0.06  -0.21     0.32  -0.01  -0.10    -0.07  -0.06   0.05
     9   1    -0.41   0.06  -0.21     0.32   0.01  -0.10     0.07  -0.06  -0.05
    10   1    -0.03   0.32   0.18     0.04  -0.09   0.00    -0.14   0.24   0.00
    11   8     0.04   0.00   0.11     0.03   0.00  -0.01     0.00  -0.06   0.00
    12   1     0.05  -0.25   0.21    -0.10  -0.42   0.42     0.30  -0.12   0.54
    13   1     0.05   0.25   0.21    -0.10   0.42   0.42    -0.30  -0.12  -0.54
                     19                     20                     21
                      A                      A                      A
 Frequencies --   1178.6959              1191.3657              1257.7103
 Red. masses --      1.1173                 1.1238                 1.6368
 Frc consts  --      0.9146                 0.9398                 1.5255
 IR Inten    --      4.9464                 0.9204                10.9950
  Atom  AN      X      Y      Z        X      Y      Z        X      Y      Z
     1   6    -0.03  -0.03   0.01    -0.01  -0.03   0.01    -0.01   0.00   0.00
     2   6     0.00   0.01   0.00     0.04   0.02  -0.01     0.02  -0.01  -0.01
     3   6     0.03  -0.03   0.02    -0.01   0.04   0.00     0.01   0.13  -0.04
     4   6     0.03   0.03   0.02     0.01   0.04   0.00     0.01  -0.13  -0.04
     5   6     0.00  -0.01   0.00    -0.04   0.02   0.01     0.02   0.01  -0.01
     6   6    -0.03   0.03   0.01     0.01  -0.03  -0.01    -0.01   0.00   0.00
     7   1    -0.28  -0.51   0.06    -0.17  -0.32   0.04    -0.06  -0.08   0.01
     8   1     0.37   0.02  -0.05     0.56   0.03  -0.10     0.23   0.01   0.01
     9   1     0.37  -0.02  -0.05    -0.55   0.03   0.10     0.23  -0.01   0.01
    10   1    -0.29   0.51   0.06     0.17  -0.32  -0.04    -0.06   0.08   0.01
    11   8    -0.01   0.00  -0.04     0.00  -0.02   0.00     0.00   0.00   0.12
    12   1     0.06   0.08   0.02     0.12   0.05   0.16    -0.36  -0.32  -0.42
    13   1     0.06  -0.08   0.02    -0.12   0.05  -0.16    -0.36   0.33  -0.42
                     22                     23                     24
                      A                      A                      A
 Frequencies --   1350.1705              1387.9543              1419.4076
 Red. masses --      1.2055                 2.0541                 1.7071
 Frc consts  --      1.2947                 2.3314                 2.0264
 IR Inten    --      0.4118                 4.4562                 2.5654
  Atom  AN      X      Y      Z        X      Y      Z        X      Y      Z
     1   6     0.03   0.04  -0.01    -0.04  -0.08   0.01    -0.02  -0.07   0.01
     2   6     0.04   0.01  -0.02     0.03  -0.01   0.00    -0.10   0.06   0.01
     3   6     0.04  -0.05   0.00    -0.09   0.14  -0.07     0.10  -0.06  -0.01
     4   6    -0.04  -0.05   0.00    -0.09  -0.14  -0.07    -0.10  -0.06   0.01
     5   6    -0.04   0.01   0.02     0.03   0.00   0.00     0.10   0.06  -0.01
     6   6    -0.03   0.04   0.01    -0.04   0.08   0.01     0.02  -0.07  -0.01
     7   1    -0.14  -0.29   0.05     0.06   0.10  -0.05     0.22   0.40  -0.06
     8   1    -0.31   0.01   0.06     0.26   0.00   0.00     0.27   0.08  -0.07
     9   1     0.30   0.01  -0.06     0.26  -0.01   0.00    -0.27   0.08   0.07
    10   1     0.14  -0.29  -0.05     0.06  -0.10  -0.05    -0.22   0.40   0.06
    11   8     0.00  -0.01   0.00     0.05   0.00   0.06     0.00  -0.01   0.00
    12   1     0.33   0.40   0.12     0.43   0.39   0.20     0.20   0.36   0.08
    13   1    -0.33   0.41  -0.12     0.42  -0.39   0.20    -0.20   0.36  -0.08
                     25                     26                     27
                      A                      A                      A
 Frequencies --   1461.7966              1614.1532              1693.5078
 Red. masses --      2.1540                 6.2942                 5.5467
 Frc consts  --      2.7119                 9.6623                 9.3727
 IR Inten    --      8.3403                 1.2946                 0.2011
  Atom  AN      X      Y      Z        X      Y      Z        X      Y      Z
     1   6    -0.04   0.13   0.00    -0.21  -0.29   0.06    -0.26  -0.16   0.07
     2   6     0.16  -0.04  -0.03     0.26   0.16  -0.08     0.29   0.11  -0.07
     3   6    -0.07   0.04  -0.01     0.00  -0.11   0.03    -0.06   0.00   0.02
     4   6    -0.07  -0.04  -0.01     0.00   0.11   0.03     0.06   0.00  -0.02
     5   6     0.16   0.04  -0.03     0.26  -0.16  -0.08    -0.29   0.11   0.07
     6   6    -0.04  -0.13   0.00    -0.21   0.29   0.06     0.26  -0.16  -0.07
     7   1    -0.29  -0.33   0.08     0.02   0.22  -0.04    -0.01   0.42  -0.04
     8   1    -0.46  -0.05   0.13    -0.22   0.20   0.08    -0.28   0.14   0.05
     9   1    -0.46   0.05   0.13    -0.22  -0.20   0.08     0.28   0.14  -0.05
    10   1    -0.29   0.33   0.08     0.02  -0.22  -0.04     0.01   0.42   0.04
    11   8     0.02   0.00   0.01    -0.01   0.00  -0.02     0.00   0.01   0.00
    12   1     0.04   0.06   0.09    -0.26  -0.22  -0.02     0.12   0.04   0.00
    13   1     0.04  -0.06   0.09    -0.26   0.22  -0.02    -0.12   0.04   0.00
                     28                     29                     30
                      A                      A                      A
 Frequencies --   3114.9975              3122.7447              3168.9283
 Red. masses --      1.0883                 1.0914                 1.0857
 Frc consts  --      6.2217                 6.2708                 6.4239
 IR Inten    --     14.0528                50.1479                 0.2691
  Atom  AN      X      Y      Z        X      Y      Z        X      Y      Z
     1   6     0.00   0.00   0.00     0.00   0.00   0.00    -0.05   0.02   0.01
     2   6     0.00  -0.01   0.00     0.00   0.01   0.00     0.00  -0.03   0.00
     3   6     0.05   0.03  -0.03    -0.05  -0.03   0.03     0.00   0.00   0.00
     4   6    -0.05   0.03   0.03    -0.04   0.03   0.03     0.00   0.00   0.00
     5   6     0.00  -0.01   0.00     0.00  -0.01   0.00     0.00  -0.03   0.00
     6   6     0.00   0.00   0.00     0.00   0.00   0.00     0.05   0.02  -0.01
     7   1     0.02  -0.01   0.00    -0.01   0.00   0.00     0.53  -0.29  -0.08
     8   1     0.00   0.07  -0.01     0.00  -0.08   0.01    -0.02   0.35  -0.06
     9   1     0.00   0.07   0.01     0.00   0.08   0.01     0.02   0.35   0.06
    10   1    -0.02  -0.01   0.00     0.00   0.00   0.00    -0.53  -0.29   0.08
    11   8     0.00   0.00   0.00     0.00   0.00   0.00     0.00   0.00   0.00
    12   1     0.53  -0.34  -0.35     0.51  -0.33  -0.32    -0.04   0.02   0.02
    13   1    -0.51  -0.32   0.33     0.53   0.34  -0.34     0.04   0.02  -0.02
                     31                     32                     33
                      A                      A                      A
 Frequencies --   3177.2780              3189.1430              3195.8179
 Red. masses --      1.0882                 1.0971                 1.0999
 Frc consts  --      6.4723                 6.5739                 6.6187
 IR Inten    --      7.3945                20.6902                 7.5846
  Atom  AN      X      Y      Z        X      Y      Z        X      Y      Z
     1   6    -0.03   0.02   0.01     0.03  -0.01  -0.01    -0.04   0.02   0.01
     2   6     0.00  -0.04   0.01     0.00  -0.05   0.01     0.00   0.04  -0.01
     3   6     0.00   0.00   0.00     0.00   0.00   0.00     0.00   0.00   0.00
     4   6     0.00   0.00   0.00     0.00   0.00   0.00     0.00   0.00   0.00
     5   6     0.00   0.04   0.01     0.00  -0.05  -0.01     0.00  -0.04  -0.01
     6   6    -0.03  -0.02   0.01    -0.03  -0.01   0.01    -0.04  -0.02   0.01
     7   1     0.40  -0.22  -0.06    -0.32   0.17   0.05     0.46  -0.25  -0.07
     8   1    -0.03   0.52  -0.09    -0.03   0.60  -0.10     0.02  -0.45   0.07
     9   1    -0.03  -0.51  -0.08     0.03   0.60   0.10     0.02   0.46   0.08
    10   1     0.41   0.23  -0.06     0.31   0.16  -0.05     0.46   0.25  -0.07
    11   8     0.00   0.00   0.00     0.00   0.00   0.00     0.00   0.00   0.00
    12   1     0.05  -0.03  -0.03    -0.04   0.02   0.02    -0.04   0.02   0.02
    13   1     0.05   0.03  -0.03     0.04   0.02  -0.02    -0.04  -0.02   0.02

 -------------------
 - Thermochemistry -
 -------------------
 Temperature   298.150 Kelvin.  Pressure   1.00000 Atm.
 Atom     1 has atomic number  6 and mass  12.00000
 Atom     2 has atomic number  6 and mass  12.00000
 Atom     3 has atomic number  6 and mass  12.00000
 Atom     4 has atomic number  6 and mass  12.00000
 Atom     5 has atomic number  6 and mass  12.00000
 Atom     6 has atomic number  6 and mass  12.00000
 Atom     7 has atomic number  1 and mass   1.00783
 Atom     8 has atomic number  1 and mass   1.00783
 Atom     9 has atomic number  1 and mass   1.00783
 Atom    10 has atomic number  1 and mass   1.00783
 Atom    11 has atomic number  8 and mass  15.99491
 Atom    12 has atomic number  1 and mass   1.00783
 Atom    13 has atomic number  1 and mass   1.00783
 Molecular mass:    94.04186 amu.
 Principal axes and moments of inertia in atomic units:
                           1         2         3
     Eigenvalues --   394.60795 505.89804 790.68290
           X            0.99937   0.00000  -0.03553
           Y            0.00000   1.00000   0.00000
           Z            0.03553   0.00000   0.99937
 This molecule is an asymmetric top.
 Rotational symmetry number  1.
 Rotational temperatures (Kelvin)      0.21949     0.17121     0.10954
 Rotational constants (GHZ):           4.57350     3.56740     2.28251
 Zero-point vibrational energy     272632.3 (Joules/Mol)
                                   65.16068 (Kcal/Mol)
 Warning -- explicit consideration of   5 degrees of freedom as
           vibrations may cause significant error
 Vibrational temperatures:    368.35   459.79   668.18   784.25   890.17
          (Kelvin)            905.55  1014.75  1122.52  1128.27  1238.01
                             1361.11  1398.18  1413.37  1421.36  1448.91
                             1464.25  1512.98  1624.72  1695.88  1714.11
                             1809.56  1942.59  1996.95  2042.21  2103.20
                             2322.40  2436.58  4481.78  4492.93  4559.38
                             4571.39  4588.46  4598.06
 
 Zero-point correction=                           0.103840 (Hartree/Particle)
 Thermal correction to Energy=                    0.108997
 Thermal correction to Enthalpy=                  0.109942
 Thermal correction to Gibbs Free Energy=         0.075226
 Sum of electronic and zero-point Energies=           -307.068925
 Sum of electronic and thermal Energies=              -307.063768
 Sum of electronic and thermal Enthalpies=            -307.062824
 Sum of electronic and thermal Free Energies=         -307.097539
 
                     E (Thermal)             CV                S
                      KCal/Mol        Cal/Mol-Kelvin    Cal/Mol-Kelvin
 Total                   68.397             20.582             73.065
 Electronic               0.000              0.000              0.000
 Translational            0.889              2.981             39.535
 Rotational               0.889              2.981             26.559
 Vibrational             66.619             14.620              6.971
 Vibration     1          0.666              1.753              1.689
 Vibration     2          0.705              1.636              1.312
 Vibration     3          0.822              1.329              0.753
 Vibration     4          0.900              1.150              0.554
 Vibration     5          0.979              0.992              0.419
                       Q            Log10(Q)             Ln(Q)
 Total Bot       0.250264D-34        -34.601602        -79.673134
 Total V=0       0.145027D+14         13.161450         30.305358
 Vib (Bot)       0.490906D-47        -47.309001       -108.933001
 Vib (Bot)    1  0.760150D+00         -0.119100         -0.274239
 Vib (Bot)    2  0.588392D+00         -0.230334         -0.530363
 Vib (Bot)    3  0.364906D+00         -0.437819         -1.008116
 Vib (Bot)    4  0.289266D+00         -0.538703         -1.240409
 Vib (Bot)    5  0.236694D+00         -0.625813         -1.440988
 Vib (V=0)       0.284479D+01          0.454051          1.045490
 Vib (V=0)    1  0.140985D+01          0.149173          0.343484
 Vib (V=0)    2  0.127214D+01          0.104536          0.240703
 Vib (V=0)    3  0.111900D+01          0.048829          0.112432
 Vib (V=0)    4  0.107765D+01          0.032476          0.074779
 Vib (V=0)    5  0.105319D+01          0.022508          0.051828
 Electronic      0.100000D+01          0.000000          0.000000
 Translational   0.358457D+08          7.554437         17.394734
 Rotational      0.142220D+06          5.152962         11.865133
 ***** Axes restored to original set *****
 -------------------------------------------------------------------
 Center     Atomic                   Forces (Hartrees/Bohr)
 Number     Number              X              Y              Z
 -------------------------------------------------------------------
      1        6          -0.000027387   -0.000019642    0.000025072
      2        6           0.000022969   -0.000008359   -0.000019021
      3        6           0.000081295    0.000050095    0.000034098
      4        6          -0.000071693   -0.000031725   -0.000041480
      5        6           0.000020882   -0.000028109    0.000039931
      6        6           0.000000013    0.000019213   -0.000020880
      7        1           0.000005629    0.000001665    0.000011496
      8        1          -0.000015198   -0.000002533   -0.000004741
      9        1           0.000001182    0.000013778   -0.000006736
     10        1           0.000001677    0.000005446    0.000003508
     11        8           0.000008191   -0.000016213   -0.000029210
     12        1           0.000004723    0.000013956    0.000001285
     13        1          -0.000032282    0.000002429    0.000006679
 -------------------------------------------------------------------
 Cartesian Forces:  Max     0.000081295 RMS     0.000026651

 GradGradGradGradGradGradGradGradGradGradGradGradGradGradGradGradGradGrad
 Berny optimization.
 Search for a local minimum.
 Step number   1 out of a maximum of    2
 All quantities printed in internal units (Hartrees-Bohrs-Radians)
 Second derivative matrix not updated -- analytic derivatives used.
 ITU=  0
     Eigenvalues ---    0.00865   0.01063   0.02414   0.02856   0.04001
     Eigenvalues ---    0.04816   0.05128   0.05321   0.06051   0.06417
     Eigenvalues ---    0.08500   0.08881   0.08994   0.13016   0.15157
     Eigenvalues ---    0.17278   0.18207   0.19588   0.20565   0.25670
     Eigenvalues ---    0.28916   0.32646   0.42145   0.44435   0.65322
     Eigenvalues ---    0.67599   0.84606   0.91466   0.96710   0.96848
     Eigenvalues ---    1.01960   1.27307   1.39391
 Angle between quadratic step and forces=  65.35 degrees.
 Linear search not attempted -- first point.
 B after Tr=     0.000042   -0.000024   -0.000032
         Rot=    1.000000   -0.000005    0.000000   -0.000004 Ang=   0.00 deg.
 Variable       Old X    -DE/DX   Delta X   Delta X   Delta X     New X
                                 (Linear)    (Quad)   (Total)
    X1        2.72168  -0.00003   0.00000  -0.00003   0.00002   2.72170
    Y1       -1.37132  -0.00002   0.00000  -0.00009  -0.00010  -1.37141
    Z1        0.23306   0.00003   0.00000   0.00025   0.00021   0.23327
    X2        0.61297   0.00002   0.00000   0.00013   0.00020   0.61317
    Y2       -2.71170  -0.00001   0.00000  -0.00006  -0.00007  -2.71177
    Z2       -0.34333  -0.00002   0.00000  -0.00032  -0.00038  -0.34370
    X3       -1.84394   0.00008   0.00000   0.00022   0.00027  -1.84366
    Y3       -1.43714   0.00005   0.00000   0.00011   0.00008  -1.43706
    Z3       -0.59615   0.00003   0.00000  -0.00005  -0.00010  -0.59625
    X4       -1.84297  -0.00007   0.00000  -0.00020  -0.00017  -1.84314
    Y4        1.43768  -0.00003   0.00000   0.00001  -0.00002   1.43766
    Z4       -0.59610  -0.00004   0.00000  -0.00013  -0.00015  -0.59625
    X5        0.61422   0.00002   0.00000  -0.00008  -0.00006   0.61416
    Y5        2.71155  -0.00003   0.00000  -0.00005  -0.00007   2.71148
    Z5       -0.34368   0.00004   0.00000   0.00000  -0.00001  -0.34369
    X6        2.72224   0.00000   0.00000  -0.00008  -0.00005   2.72220
    Y6        1.37037   0.00002   0.00000  -0.00002  -0.00003   1.37034
    Z6        0.23334  -0.00002   0.00000  -0.00005  -0.00007   0.23328
    X7        4.52289   0.00001   0.00000  -0.00001   0.00005   4.52294
    Y7       -2.34867   0.00000   0.00000   0.00005   0.00005  -2.34861
    Z7        0.50002   0.00001   0.00000   0.00073   0.00068   0.50071
    X8        0.70925  -0.00002   0.00000  -0.00026  -0.00018   0.70907
    Y8       -4.74805   0.00000   0.00000  -0.00006  -0.00007  -4.74812
    Z8       -0.67826   0.00000   0.00000  -0.00042  -0.00050  -0.67876
    X9        0.71078   0.00000   0.00000   0.00002   0.00002   0.71081
    Y9        4.74786   0.00001   0.00000  -0.00005  -0.00007   4.74780
    Z9       -0.67849  -0.00001   0.00000  -0.00026  -0.00025  -0.67873
   X10        4.52389   0.00000   0.00000  -0.00012  -0.00009   4.52380
   Y10        2.34681   0.00001   0.00000   0.00006   0.00007   2.34688
   Z10        0.50074   0.00000   0.00000  -0.00002  -0.00002   0.50072
   X11       -2.70771   0.00001   0.00000   0.00032   0.00036  -2.70735
   Y11        0.00057  -0.00002   0.00000  -0.00005  -0.00011   0.00046
   Z11        1.50547  -0.00003   0.00000   0.00001  -0.00002   1.50545
   X12       -3.35474   0.00000   0.00000  -0.00024  -0.00021  -3.35495
   Y12        2.43924   0.00001   0.00000   0.00026   0.00023   2.43947
   Z12       -1.60521   0.00000   0.00000   0.00018   0.00017  -1.60504
   X13       -3.35566  -0.00003   0.00000  -0.00024  -0.00017  -3.35584
   Y13       -2.43841   0.00000   0.00000   0.00014   0.00010  -2.43831
   Z13       -1.60547   0.00001   0.00000   0.00048   0.00043  -1.60505
         Item               Value     Threshold  Converged?
 Maximum Force            0.000081     0.000450     YES
 RMS     Force            0.000027     0.000300     YES
 Maximum Displacement     0.000685     0.001800     YES
 RMS     Displacement     0.000211     0.001200     YES
 Predicted change in Energy=-4.652247D-08
 Optimization completed.
    -- Stationary point found.
 GradGradGradGradGradGradGradGradGradGradGradGradGradGradGradGradGradGrad

 1\1\GINC-QC0019\Freq\RB3LYP\SVP\C6H6O1\ELIOT\05-Oct-2018\0\\# freq b3l
 yp/svp\\benzox.log\\0,1\C,1.44025,-0.72567,0.12333\C,0.32437,-1.43497,
 -0.18168\C,-0.97577,-0.7605,-0.31547\C,-0.97526,0.76079,-0.31544\C,0.3
 2503,1.43489,-0.18187\C,1.44055,0.72517,0.12348\H,2.39341,-1.24286,0.2
 646\H,0.37532,-2.51256,-0.35892\H,0.37613,2.51246,-0.35904\H,2.39394,1
 .24188,0.26498\O,-1.43286,0.0003,0.79666\H,-1.77525,1.29079,-0.84944\H
 ,-1.77574,-1.29035,-0.84958\\Version=ES64L-G09RevE.01\State=1-A\HF=-30
 7.1727652\RMSD=5.547e-09\RMSF=2.665e-05\ZeroPoint=0.1038402\Thermal=0.
 1089975\Dipole=0.32622,-0.000106,-0.6536255\DipoleDeriv=0.0118483,-0.1
 395253,0.0365335,-0.1088305,0.0990616,0.0094984,-0.0074541,-0.0681528,
 -0.1106441,-0.0278758,-0.0856453,-0.0087472,-0.0791073,-0.0445772,0.02
 33898,-0.0394991,-0.0161911,-0.1797425,0.4016015,0.1148169,0.040494,0.
 1728708,0.1251355,0.0627243,-0.0575595,0.1414959,0.3649808,0.4015135,-
 0.1150343,0.0404846,-0.1729761,0.1252782,-0.0627309,-0.0575677,-0.1415
 682,0.3650271,-0.027939,0.0856672,-0.0087638,0.0789807,-0.0447455,-0.0
 23415,-0.0395332,0.0164694,-0.1797839,0.0120915,0.1395185,0.0366484,0.
 1088654,0.0990574,-0.0094766,-0.0074225,0.0681517,-0.1106069,-0.057521
 ,0.0695616,-0.0325773,0.0580684,0.0164504,0.0102643,-0.019026,0.001670
 8,0.1154617,0.0545332,0.0124934,-0.0149585,0.0123779,-0.0787916,-0.031
 9954,0.0004623,-0.0184814,0.1172492,0.0545606,-0.0124693,-0.0149554,-0
 .0124138,-0.0786915,0.0320053,0.0004777,0.0183458,0.1172954,-0.0575947
 ,-0.0695473,-0.0326193,-0.0580198,0.0165221,-0.0102762,-0.0189936,-0.0
 017173,0.1154571,-0.6291798,0.0000707,0.1021987,0.0001392,-0.2329338,-
 0.0000129,0.3298763,-0.0000636,-0.6673059,-0.0680446,0.0614312,-0.0718
 877,0.076613,-0.0009275,0.0749178,-0.0418769,0.065904,0.0262846,-0.067
 9939,-0.0613381,-0.07185,-0.0765677,-0.0008381,-0.0748929,-0.0418835,-
 0.0658633,0.0263274\Polar=71.241515,0.0018489,74.627187,6.7530065,-0.0
 018008,35.4584748\PG=C01 [X(C6H6O1)]\NImag=0\\0.76728402,0.02870686,0.
 63178772,0.13180179,0.02947465,0.16063740,-0.35912651,-0.13103896,-0.0
 7329608,0.66985634,-0.16504792,-0.21047581,-0.05290349,0.07597611,0.71
 126697,-0.08076974,-0.04645111,-0.07723484,0.10658080,0.11162944,0.173
 53905,-0.03923110,-0.00510747,-0.00943338,-0.21655652,0.06876818,-0.02
 738801,0.58334409,0.00667922,0.04403018,0.00942362,0.02886277,-0.12107
 659,-0.00582165,0.01910282,0.49404018,-0.00900797,-0.00080407,-0.00036
 901,-0.03070689,0.00337200,-0.06765436,0.12238524,0.15445279,0.3139038
 5,-0.00712688,-0.01174440,-0.00256898,0.01358333,0.01983431,-0.0052896
 0,-0.04730262,0.00178487,-0.02999471,0.58343457,-0.01279377,-0.0275176
 0,-0.00974845,0.03401052,-0.02204122,0.01132497,-0.00186636,-0.1689498
 0,-0.04532486,-0.01902719,0.49403759,-0.00471817,-0.00536736,-0.006840
 95,0.01756923,-0.00236631,-0.00502238,-0.02995488,0.04533992,-0.002873
 70,0.12225889,-0.15446813,0.31388719,0.01980508,0.04490866,0.00368844,
 -0.02745007,-0.00414848,-0.00605402,0.01356088,-0.03401986,0.01757015,
 -0.21664015,-0.02886753,-0.03067045,0.66979034,0.02374450,-0.03205284,
 0.00711862,0.00415547,0.00017598,0.00137327,-0.01983872,-0.02200678,0.
 00236160,-0.06878781,-0.12108244,-0.00335227,-0.07596117,0.71141353,-0
 .00041387,0.00901063,0.00561209,-0.00605510,-0.00137041,0.00234796,-0.
 00529669,-0.01130684,-0.00502952,-0.02736700,0.00582616,-0.06765372,0.
 10660976,-0.11170936,0.17356044,-0.11493251,-0.02428552,-0.00754600,0.
 01977534,-0.02376608,-0.00042070,-0.00710670,0.01278544,-0.00471783,-0
 .03924945,-0.00664625,-0.00902422,-0.35897899,0.16508496,-0.08082518,0
 .76723713,0.02422441,-0.26024886,0.00261738,-0.04492492,-0.03202446,-0
 .00901230,0.01173180,-0.02752437,0.00537093,0.00514933,0.04404102,0.00
 080762,0.13108132,-0.21059203,0.04652683,-0.02876253,0.63176713,-0.007
 54791,-0.00266033,-0.06148660,0.00368792,-0.00710731,0.00561222,-0.002
 56171,0.00974421,-0.00683879,-0.00944283,-0.00941482,-0.00036722,-0.07
 335905,0.05297781,-0.07728076,0.13192160,-0.02950159,0.16070179,-0.268
 81779,0.11660583,-0.03536060,-0.01850903,0.01460586,-0.00258549,-0.001
 39036,-0.00388375,-0.00388625,0.00023643,-0.00061464,0.00008256,0.0011
 8594,-0.00017757,0.00005645,0.00312057,-0.00362403,-0.00013216,0.28318
 262,0.11691562,-0.12012596,0.01647769,-0.01662362,0.01111681,-0.002410
 69,-0.00234184,-0.00133807,-0.00180689,-0.00089744,-0.00052667,-0.0002
 8430,-0.00172069,-0.00527848,-0.00000678,0.02758648,-0.01009859,0.0036
 6279,-0.12354877,0.12411918,-0.03455248,0.01323778,-0.04390093,-0.0046
 7269,0.00430359,0.00470941,-0.00219904,-0.00212617,0.00950849,0.001049
 35,-0.00008098,-0.00022450,-0.00130977,-0.00100376,0.00281753,0.002095
 74,0.00032312,0.00291712,0.03959404,-0.01697573,0.03207697,0.00420993,
 -0.02740181,-0.00379680,-0.05482678,0.01720496,-0.00370815,0.00343050,
 0.02458785,0.00390789,-0.00389395,0.00051068,-0.00024124,0.00001467,-0
 .00047259,0.00009678,-0.00334147,-0.00072064,-0.00278088,0.00075866,0.
 00004717,0.00141028,0.05481493,0.00317632,-0.01194362,-0.00166232,0.01
 569831,-0.33018356,-0.04913825,-0.00395713,-0.00685485,-0.00202732,0.0
 0122694,-0.00061326,-0.00019382,0.00096675,0.00081924,0.00041100,-0.00
 264447,0.00163243,-0.00301329,-0.00036299,0.00077276,0.00135219,-0.015
 11831,0.34724176,0.00429193,-0.00371089,0.00608817,-0.00867139,-0.0493
 2800,-0.04365988,0.00220256,-0.00411315,0.00673679,0.00225419,0.008451
 21,0.00325102,-0.00441168,-0.00004498,-0.00203671,-0.00227288,-0.00385
 406,0.00934967,0.00158914,0.00076270,-0.00627551,0.00347877,0.05371352
 ,0.03163081,-0.00333908,0.00072119,-0.00278222,0.00001480,0.00047375,0
 .00009651,-0.00389450,-0.00050904,-0.00024102,0.00342087,-0.02459825,0
 .00390595,-0.05482407,-0.01724102,-0.00370214,0.00422129,0.02739070,-0
 .00379113,-0.00000762,0.00113331,0.00019915,0.00014347,-0.00002963,0.0
 0018075,0.05480776,0.00264403,0.00163161,0.00301508,-0.00096689,0.0008
 1893,-0.00041221,-0.00122530,-0.00061242,0.00019443,0.00395365,-0.0068
 5383,0.00202361,-0.01574753,-0.33023953,0.04914126,-0.00317963,-0.0119
 4151,0.00165622,-0.00008970,-0.00054042,-0.00019275,0.00002949,-0.0000
 0572,-0.00032272,0.01517235,0.34729239,-0.00227616,0.00385407,0.009346
 81,-0.00441149,0.00004402,-0.00203699,0.00224975,-0.00845180,0.0032506
 5,0.00220787,0.00411538,0.00673742,-0.00866535,0.04931763,-0.04364798,
 0.00429478,0.00371595,0.00608849,0.00008042,0.00067847,0.00030012,0.00
 018052,0.00032268,-0.00132900,0.00347009,-0.05370863,0.03161998,0.0031
 0820,0.00361668,-0.00013158,0.00118818,0.00017506,0.00005451,0.0002357
 7,0.00061426,0.00008312,-0.00138769,0.00388224,-0.00389057,-0.01850172
 ,-0.01459190,-0.00258391,-0.26891431,-0.11652389,-0.03542265,0.0006427
 0,-0.00025180,0.00016518,-0.00000828,0.00008937,0.00007979,0.00075889,
 0.00036313,0.00159041,0.28328001,-0.02759561,-0.01008837,-0.00366427,0
 .00171840,-0.00527960,0.00000397,0.00089696,-0.00052724,0.00028428,0.0
 0234248,-0.00134047,0.00180917,0.01663273,0.01111988,0.00241323,-0.116
 82724,-0.12001029,-0.01649234,0.00025229,0.00114952,0.00013822,-0.0011
 3378,-0.00054073,-0.00067760,-0.00004936,0.00077206,-0.00076321,0.1234
 6398,0.12399508,0.00209282,-0.00032274,0.00291888,-0.00131130,0.001001
 76,0.00281739,0.00105249,0.00007668,-0.00022271,-0.00219930,0.00213359
 ,0.00950843,-0.00468385,-0.00430651,0.00471063,-0.03460379,-0.01325379
 ,-0.04392110,0.00016453,-0.00013769,-0.00160767,0.00019922,0.00019315,
 0.00029900,0.00141105,-0.00135168,-0.00627493,0.03965772,0.01698952,0.
 03209523,0.00012370,-0.00005802,0.00067038,-0.01213457,0.01064131,0.02
 969333,-0.07335906,0.04318763,0.03330020,-0.07338373,-0.04318223,0.033
 32060,-0.01215055,-0.01063801,0.02969380,0.00013111,0.00005610,0.00067
 266,0.00066278,0.00035096,-0.00201107,-0.00174123,0.00068567,0.0008946
 7,-0.00174121,-0.00068468,0.00089527,0.00066306,-0.00035108,-0.0020105
 6,0.14094710,-0.00458713,-0.00241430,0.00074772,0.02295034,-0.01266113
 ,-0.02024462,0.01617239,-0.07409950,-0.06854191,-0.01616979,-0.0740711
 8,0.06853874,-0.02294783,-0.01263883,0.02022107,0.00458913,-0.00242046
 ,-0.00074799,0.00002566,0.00021219,0.00146463,0.00288193,-0.00064281,-
 0.00156938,-0.00287912,-0.00064065,0.00156884,-0.00002563,0.00021229,-
 0.00146241,0.00000262,0.20106492,0.00204324,0.00486799,0.00398341,0.00
 190118,-0.00344420,0.00289586,0.03499070,-0.12846820,-0.15655359,0.035
 07852,0.12846872,-0.15659156,0.00189770,0.00344053,0.00291143,0.002040
 36,-0.00486964,0.00397984,0.00042198,0.00015457,-0.00000855,0.00050939
 ,0.00018775,-0.00356157,0.00050871,-0.00018787,-0.00356170,0.00042241,
 -0.00015492,-0.00001089,-0.09382693,-0.00000357,0.34743893,0.00092198,
 0.00015190,0.00030135,-0.00076517,0.00068081,0.00010119,-0.00207282,-0
 .00319364,0.00070008,-0.20961110,0.09599676,-0.09933502,-0.01504673,0.
 01540488,-0.01031261,-0.00288348,-0.00492462,-0.00154571,-0.00001306,0
 .00010962,0.00002367,0.00000585,0.00003288,-0.00023208,0.00043366,-0.0
 0023598,0.00061614,-0.00105175,0.00075977,0.00020728,0.01598924,-0.008
 19246,0.00701110,0.21332779,0.00110005,-0.00059549,-0.00030178,-0.0014
 9963,-0.00004821,0.00110047,0.01338462,-0.00739645,0.01412605,0.095713
 83,-0.10770446,0.06163469,-0.01167420,0.01041012,-0.00805628,-0.002834
 65,-0.00198469,0.00059517,0.00001661,0.00010744,-0.00003675,0.00036063
 ,-0.00019237,0.00022448,0.00077564,0.00051134,-0.00046900,-0.00079489,
 0.00043037,0.00040296,0.00186320,-0.01095153,0.00766310,-0.09650062,0.
 11677528,0.00038558,-0.00088117,-0.00026140,-0.00091727,-0.00183550,0.
 00169868,0.01345791,-0.00409842,0.00260286,-0.09944780,0.05463077,-0.0
 9640947,0.00030498,0.00199267,0.00198889,-0.00132797,0.00024791,0.0015
 0717,0.00000407,0.00003623,-0.00019086,0.00041295,-0.00021184,0.000119
 67,0.00033134,-0.00006650,-0.00061284,-0.00002855,0.00015017,-0.000121
 34,-0.01564029,0.02504907,-0.02047385,0.10278972,-0.07594812,0.1105205
 7,-0.00287902,0.00492506,-0.00154632,-0.01504933,-0.01539787,-0.010310
 63,-0.20965757,-0.09599859,-0.09939201,-0.00207962,0.00319604,0.000697
 32,-0.00076461,-0.00068102,0.00009970,0.00092149,-0.00015302,0.0003018
 5,-0.00105184,-0.00075900,0.00020763,0.00043370,0.00023629,0.00061624,
 0.00000574,-0.00003293,-0.00023224,-0.00001306,-0.00010955,0.00002370,
 0.01599337,0.00817989,0.00700164,0.00076559,0.00008941,-0.00032467,0.2
 1337516,0.00283344,-0.00198665,-0.00059444,0.01168211,0.01041189,0.008
 05872,-0.09571995,-0.10768428,-0.06165703,-0.01337876,-0.00737769,-0.0
 1412157,0.00149781,-0.00004781,-0.00110050,-0.00109965,-0.00059531,0.0
 0030146,0.00079520,0.00043030,-0.00040337,-0.00077559,0.00051073,0.000
 46887,-0.00036052,-0.00019226,-0.00022440,-0.00001661,0.00010752,0.000
 03715,-0.00187348,-0.01094903,-0.00765425,-0.00008929,0.00063865,0.000
 93473,0.09650530,0.11673394,-0.00132907,-0.00024746,0.00150696,0.00030
 307,-0.00199557,0.00198787,-0.09950494,-0.05465097,-0.09646095,0.01346
 141,0.00408643,0.00259945,-0.00091687,0.00183474,0.00169971,0.00038610
 ,0.00088165,-0.00026182,-0.00002869,-0.00015038,-0.00012161,0.00033128
 ,0.00006656,-0.00061246,0.00041298,0.00021177,0.00011997,0.00000411,-0
 .00003621,-0.00019090,-0.01565205,-0.02502020,-0.02044778,-0.00032511,
 -0.00093499,-0.00036810,0.10285779,0.07595463,0.11054967\\0.00002739,0
 .00001964,-0.00002507,-0.00002297,0.00000836,0.00001902,-0.00008130,-0
 .00005009,-0.00003410,0.00007169,0.00003173,0.00004148,-0.00002088,0.0
 0002811,-0.00003993,-0.00000001,-0.00001921,0.00002088,-0.00000563,-0.
 00000166,-0.00001150,0.00001520,0.00000253,0.00000474,-0.00000118,-0.0
 0001378,0.00000674,-0.00000168,-0.00000545,-0.00000351,-0.00000819,0.0
 0001621,0.00002921,-0.00000472,-0.00001396,-0.00000128,0.00003228,-0.0
 0000243,-0.00000668\\\@


 ONE THORN OF EXPERIENCE IS WORTH A WHOLE WILDERNESS OF
 WARNING....  LOWELL - AMONG MY BOOKS
 Job cpu time:       0 days  0 hours  4 minutes  2.7 seconds.
 File lengths (MBytes):  RWF=     30 Int=      0 D2E=      0 Chk=      2 Scr=      1
 Normal termination of Gaussian 09 at Fri Oct  5 09:48:36 2018.
