 Entering Gaussian System, Link 0=/home/eliot/software/g09E01/g09
 Initial command:
 /home/eliot/software/g09E01/l1.exe "/tmp/Gau-7282.inp" -scrdir="/tmp/"
 Entering Link 1 = /home/eliot/software/g09E01/l1.exe PID=      7284.
  
 Copyright (c) 1988,1990,1992,1993,1995,1998,2003,2009,2015,
            Gaussian, Inc.  All Rights Reserved.
  
 This is part of the Gaussian(R) 09 program.  It is based on
 the Gaussian(R) 03 system (copyright 2003, Gaussian, Inc.),
 the Gaussian(R) 98 system (copyright 1998, Gaussian, Inc.),
 the Gaussian(R) 94 system (copyright 1995, Gaussian, Inc.),
 the Gaussian 92(TM) system (copyright 1992, Gaussian, Inc.),
 the Gaussian 90(TM) system (copyright 1990, Gaussian, Inc.),
 the Gaussian 88(TM) system (copyright 1988, Gaussian, Inc.),
 the Gaussian 86(TM) system (copyright 1986, Carnegie Mellon
 University), and the Gaussian 82(TM) system (copyright 1983,
 Carnegie Mellon University). Gaussian is a federally registered
 trademark of Gaussian, Inc.
  
 This software contains proprietary and confidential information,
 including trade secrets, belonging to Gaussian, Inc.
  
 This software is provided under written license and may be
 used, copied, transmitted, or stored only in accord with that
 written license.
  
 The following legend is applicable only to US Government
 contracts under FAR:
  
                    RESTRICTED RIGHTS LEGEND
  
 Use, reproduction and disclosure by the US Government is
 subject to restrictions as set forth in subparagraphs (a)
 and (c) of the Commercial Computer Software - Restricted
 Rights clause in FAR 52.227-19.
  
 Gaussian, Inc.
 340 Quinnipiac St., Bldg. 40, Wallingford CT 06492
  
  
 ---------------------------------------------------------------
 Warning -- This program may not be used in any manner that
 competes with the business of Gaussian, Inc. or will provide
 assistance to any competitor of Gaussian, Inc.  The licensee
 of this program is prohibited from giving any competitor of
 Gaussian, Inc. access to this program.  By using this program,
 the user acknowledges that Gaussian, Inc. is engaged in the
 business of creating and licensing software in the field of
 computational chemistry and represents and warrants to the
 licensee that it is not a competitor of Gaussian, Inc. and that
 it will not use this program in any manner prohibited above.
 ---------------------------------------------------------------
  

 Cite this work as:
 Gaussian 09, Revision E.01,
 M. J. Frisch, G. W. Trucks, H. B. Schlegel, G. E. Scuseria, 
 M. A. Robb, J. R. Cheeseman, G. Scalmani, V. Barone, B. Mennucci, 
 G. A. Petersson, H. Nakatsuji, M. Caricato, X. Li, H. P. Hratchian, 
 A. F. Izmaylov, J. Bloino, G. Zheng, J. L. Sonnenberg, M. Hada, 
 M. Ehara, K. Toyota, R. Fukuda, J. Hasegawa, M. Ishida, T. Nakajima, 
 Y. Honda, O. Kitao, H. Nakai, T. Vreven, J. A. Montgomery, Jr., 
 J. E. Peralta, F. Ogliaro, M. Bearpark, J. J. Heyd, E. Brothers, 
 K. N. Kudin, V. N. Staroverov, T. Keith, R. Kobayashi, J. Normand, 
 K. Raghavachari, A. Rendell, J. C. Burant, S. S. Iyengar, J. Tomasi, 
 M. Cossi, N. Rega, J. M. Millam, M. Klene, J. E. Knox, J. B. Cross, 
 V. Bakken, C. Adamo, J. Jaramillo, R. Gomperts, R. E. Stratmann, 
 O. Yazyev, A. J. Austin, R. Cammi, C. Pomelli, J. W. Ochterski, 
 R. L. Martin, K. Morokuma, V. G. Zakrzewski, G. A. Voth, 
 P. Salvador, J. J. Dannenberg, S. Dapprich, A. D. Daniels, 
 O. Farkas, J. B. Foresman, J. V. Ortiz, J. Cioslowski, 
 and D. J. Fox, Gaussian, Inc., Wallingford CT, 2013.
 
 ******************************************
 Gaussian 09:  ES64L-G09RevE.01 30-Nov-2015
                 5-Oct-2018 
 ******************************************
 %nproc=2
 Will use up to    2 processors via shared memory.
 ---------------
 # freq bp86/SVP
 ---------------
 1/10=4,30=1,38=1/1,3;
 2/12=2,17=6,18=5,40=1/2;
 3/5=18,7=101,11=2,16=1,25=1,30=1,71=2,74=404,140=1/1,2,3;
 4//1;
 5/5=2,38=5,98=1/2;
 8/6=4,10=90,11=11/1;
 11/6=1,8=1,9=11,15=111,16=1/1,2,10;
 10/6=1/2;
 6/7=2,8=2,9=2,10=2,18=1,28=1/1;
 7/8=1,10=1,25=1/1,2,3,16;
 1/10=4,30=1/3;
 99//99;
 ---------------
 benzox-bp86.log
 ---------------
 Symbolic Z-matrix:
 Charge =  0 Multiplicity = 1
 C                    -1.44547   0.72542   0.13014 
 C                    -0.3228    1.44093  -0.19331 
 C                     0.98052   0.76955  -0.31394 
 C                     0.98053  -0.76954  -0.31395 
 C                    -0.32279  -1.44093  -0.19331 
 C                    -1.44546  -0.72543   0.13014 
 H                    -2.40578   1.24761   0.27222 
 H                    -0.38084   2.52227  -0.39739 
 H                    -0.38082  -2.52227  -0.39738 
 H                    -2.40577  -1.24763   0.27223 
 O                     1.42976   0.        0.80919 
 H                     1.79399  -1.29761  -0.84891 
 H                     1.79398   1.29762  -0.8489 
 

 GradGradGradGradGradGradGradGradGradGradGradGradGradGradGradGradGradGrad
 Berny optimization.
 Initialization pass.
 Trust Radius=3.00D-01 FncErr=1.00D-07 GrdErr=1.00D-07
 Number of steps in this run=      2 maximum allowed number of steps=      2.
 GradGradGradGradGradGradGradGradGradGradGradGradGradGradGradGradGradGrad

                          Input orientation:                          
 ---------------------------------------------------------------------
 Center     Atomic      Atomic             Coordinates (Angstroms)
 Number     Number       Type             X           Y           Z
 ---------------------------------------------------------------------
      1          6           0       -1.445470    0.725420    0.130140
      2          6           0       -0.322800    1.440930   -0.193310
      3          6           0        0.980520    0.769550   -0.313940
      4          6           0        0.980530   -0.769540   -0.313950
      5          6           0       -0.322790   -1.440930   -0.193310
      6          6           0       -1.445460   -0.725430    0.130140
      7          1           0       -2.405780    1.247610    0.272220
      8          1           0       -0.380840    2.522270   -0.397390
      9          1           0       -0.380820   -2.522270   -0.397380
     10          1           0       -2.405770   -1.247630    0.272230
     11          8           0        1.429760    0.000000    0.809190
     12          1           0        1.793990   -1.297610   -0.848910
     13          1           0        1.793980    1.297620   -0.848900
 ---------------------------------------------------------------------
                    Distance matrix (angstroms):
                    1          2          3          4          5
     1  C    0.000000
     2  C    1.370023   0.000000
     3  C    2.466695   1.471036   0.000000
     4  C    2.884025   2.568930   1.539090   0.000000
     5  C    2.461321   2.881860   2.568928   1.471041   0.000000
     6  C    1.450850   2.461321   2.884017   2.466696   1.370018
     7  H    1.102300   2.143104   3.469748   3.984920   3.432756
     8  H    2.154158   1.101959   2.220876   3.563187   3.968875
     9  H    3.458214   3.968875   3.563185   2.220877   1.101957
    10  H    2.198930   3.432761   3.984918   3.469756   2.143105
    11  O    3.042087   2.480474   1.433682   1.433682   2.480467
    12  H    3.942752   3.522813   2.284968   1.107591   2.220610
    13  H    3.432196   2.220607   1.107591   2.284956   3.522807
                    6          7          8          9         10
     6  C    0.000000
     7  H    2.198929   0.000000
     8  H    3.458216   2.484656   0.000000
     9  H    2.154152   4.331376   5.044540   0.000000
    10  H    1.102306   2.495240   4.331383   2.484654   0.000000
    11  O    3.042079   4.068935   3.331059   3.331044   4.068931
    12  H    3.432195   5.037176   4.418737   2.536429   4.347118
    13  H    3.942743   4.347113   2.536429   4.418731   5.037175
                   11         12         13
    11  O    0.000000
    12  H    2.136762   0.000000
    13  H    2.136758   2.595230   0.000000
 Stoichiometry    C6H6O
 Framework group  C1[X(C6H6O)]
 Deg. of freedom    33
 Full point group                 C1      NOp   1
 Largest Abelian subgroup         C1      NOp   1
 Largest concise Abelian subgroup C1      NOp   1
                         Standard orientation:                         
 ---------------------------------------------------------------------
 Center     Atomic      Atomic             Coordinates (Angstroms)
 Number     Number       Type             X           Y           Z
 ---------------------------------------------------------------------
      1          6           0        1.445472   -0.725416    0.130140
      2          6           0        0.322804   -1.440929   -0.193310
      3          6           0       -0.980518   -0.769553   -0.313940
      4          6           0       -0.980532    0.769537   -0.313950
      5          6           0        0.322787    1.440931   -0.193310
      6          6           0        1.445458    0.725434    0.130140
      7          1           0        2.405784   -1.247604    0.272220
      8          1           0        0.380847   -2.522269   -0.397390
      9          1           0        0.380814    2.522271   -0.397380
     10          1           0        2.405767    1.247636    0.272230
     11          8           0       -1.429760   -0.000004    0.809190
     12          1           0       -1.793993    1.297605   -0.848910
     13          1           0       -1.793976   -1.297625   -0.848900
 ---------------------------------------------------------------------
 Rotational constants (GHZ):      4.5160105      3.5379722      2.2663557
 Standard basis: SVP (5D, 7F)
 There are   135 symmetry adapted cartesian basis functions of A   symmetry.
 There are   128 symmetry adapted basis functions of A   symmetry.
   128 basis functions,   217 primitive gaussians,   135 cartesian basis functions
    25 alpha electrons       25 beta electrons
       nuclear repulsion energy       278.6068460226 Hartrees.
 NAtoms=   13 NActive=   13 NUniq=   13 SFac= 1.00D+00 NAtFMM=   60 NAOKFM=F Big=F
 Integral buffers will be    131072 words long.
 Raffenetti 2 integral format.
 Two-electron integral symmetry is turned on.
 One-electron integrals computed using PRISM.
 NBasis=   128 RedAO= T EigKep=  3.60D-04  NBF=   128
 NBsUse=   128 1.00D-06 EigRej= -1.00D+00 NBFU=   128
 ExpMin= 1.22D-01 ExpMax= 2.27D+03 ExpMxC= 3.41D+02 IAcc=1 IRadAn=         1 AccDes= 0.00D+00
 Harris functional with IExCor=  404 and IRadAn=       1 diagonalized for initial guess.
 HarFok:  IExCor=  404 AccDes= 0.00D+00 IRadAn=         1 IDoV= 1 UseB2=F ITyADJ=14
 ICtDFT=  3500011 ScaDFX=  1.000000  1.000000  1.000000  1.000000
 FoFCou: FMM=F IPFlag=           0 FMFlag=      100000 FMFlg1=           0
         NFxFlg=           0 DoJE=T BraDBF=F KetDBF=T FulRan=T
         wScrn=  0.000000 ICntrl=     500 IOpCl=  0 I1Cent=   200000004 NGrid=           0
         NMat0=    1 NMatS0=      1 NMatT0=    0 NMatD0=    1 NMtDS0=    0 NMtDT0=    0
 Petite list used in FoFCou.
 Requested convergence on RMS density matrix=1.00D-08 within 128 cycles.
 Requested convergence on MAX density matrix=1.00D-06.
 Requested convergence on             energy=1.00D-06.
 No special actions if energy rises.
 Integral accuracy reduced to 1.0D-05 until final iterations.
 Initial convergence to 1.0D-05 achieved.  Increase integral accuracy.
 SCF Done:  E(RB-P86) =  -307.175004025     A.U. after   14 cycles
            NFock= 14  Conv=0.93D-08     -V/T= 2.0112
 Range of M.O.s used for correlation:     1   128
 NBasis=   128 NAE=    25 NBE=    25 NFC=     0 NFV=     0
 NROrb=    128 NOA=    25 NOB=    25 NVA=   103 NVB=   103

 **** Warning!!: The largest alpha MO coefficient is  0.10364086D+02

 Symmetrizing basis deriv contribution to polar:
 IMax=3 JMax=2 DiffMx= 0.00D+00
 G2DrvN: will do    14 centers at a time, making    1 passes.
 Calling FoFCou, ICntrl=  3507 FMM=F I1Cent=   0 AccDes= 0.00D+00.
 End of G2Drv F.D. properties file   721 does not exist.
 End of G2Drv F.D. properties file   722 does not exist.
 End of G2Drv F.D. properties file   788 does not exist.
          IDoAtm=1111111111111
          Differentiating once with respect to electric field.
                with respect to dipole field.
          Differentiating once with respect to nuclear coordinates.
          There are    42 degrees of freedom in the 1st order CPHF.  IDoFFX=6 NUNeed=     3.
     39 vectors produced by pass  0 Test12= 6.13D-15 2.38D-09 XBig12= 1.72D+02 1.03D+01.
 AX will form    39 AO Fock derivatives at one time.
     39 vectors produced by pass  1 Test12= 6.13D-15 2.38D-09 XBig12= 7.18D+01 2.43D+00.
     39 vectors produced by pass  2 Test12= 6.13D-15 2.38D-09 XBig12= 3.34D-01 1.08D-01.
     39 vectors produced by pass  3 Test12= 6.13D-15 2.38D-09 XBig12= 6.89D-04 4.18D-03.
     36 vectors produced by pass  4 Test12= 6.13D-15 2.38D-09 XBig12= 4.12D-07 9.43D-05.
      8 vectors produced by pass  5 Test12= 6.13D-15 2.38D-09 XBig12= 6.78D-11 9.12D-07.
      3 vectors produced by pass  6 Test12= 6.13D-15 2.38D-09 XBig12= 7.62D-15 1.63D-08.
 InvSVY:  IOpt=1 It=  1 EMax= 7.11D-15
 Solved reduced A of dimension   203 with    42 vectors.
 Isotropic polarizability for W=    0.000000       62.93 Bohr**3.
 End of Minotr F.D. properties file   721 does not exist.
 End of Minotr F.D. properties file   722 does not exist.
 End of Minotr F.D. properties file   788 does not exist.

 **********************************************************************

            Population analysis using the SCF density.

 **********************************************************************

 Orbital symmetries:
       Occupied  (A) (A) (A) (A) (A) (A) (A) (A) (A) (A) (A) (A)
                 (A) (A) (A) (A) (A) (A) (A) (A) (A) (A) (A) (A)
                 (A)
       Virtual   (A) (A) (A) (A) (A) (A) (A) (A) (A) (A) (A) (A)
                 (A) (A) (A) (A) (A) (A) (A) (A) (A) (A) (A) (A)
                 (A) (A) (A) (A) (A) (A) (A) (A) (A) (A) (A) (A)
                 (A) (A) (A) (A) (A) (A) (A) (A) (A) (A) (A) (A)
                 (A) (A) (A) (A) (A) (A) (A) (A) (A) (A) (A) (A)
                 (A) (A) (A) (A) (A) (A) (A) (A) (A) (A) (A) (A)
                 (A) (A) (A) (A) (A) (A) (A) (A) (A) (A) (A) (A)
                 (A) (A) (A) (A) (A) (A) (A) (A) (A) (A) (A) (A)
                 (A) (A) (A) (A) (A) (A) (A)
 The electronic state is 1-A.
 Alpha  occ. eigenvalues --  -18.79330  -9.97647  -9.97647  -9.92729  -9.92726
 Alpha  occ. eigenvalues --   -9.92492  -9.92489  -0.98470  -0.74549  -0.68141
 Alpha  occ. eigenvalues --   -0.62168  -0.56587  -0.53205  -0.48409  -0.44037
 Alpha  occ. eigenvalues --   -0.42828  -0.40643  -0.39073  -0.36263  -0.33229
 Alpha  occ. eigenvalues --   -0.32061  -0.31950  -0.25273  -0.22698  -0.21193
 Alpha virt. eigenvalues --   -0.08163  -0.00364   0.03216   0.07236   0.07399
 Alpha virt. eigenvalues --    0.09777   0.10596   0.12229   0.12820   0.13248
 Alpha virt. eigenvalues --    0.21702   0.22031   0.22160   0.26351   0.33641
 Alpha virt. eigenvalues --    0.36323   0.37207   0.39786   0.40195   0.40976
 Alpha virt. eigenvalues --    0.42858   0.44134   0.46406   0.46483   0.48571
 Alpha virt. eigenvalues --    0.49271   0.50925   0.55142   0.56788   0.58114
 Alpha virt. eigenvalues --    0.58598   0.60477   0.61051   0.64015   0.65338
 Alpha virt. eigenvalues --    0.66730   0.67431   0.68642   0.71973   0.76558
 Alpha virt. eigenvalues --    0.80459   0.83961   0.88594   0.93714   1.00362
 Alpha virt. eigenvalues --    1.00401   1.07535   1.14988   1.19754   1.24302
 Alpha virt. eigenvalues --    1.24371   1.28210   1.30143   1.36737   1.45307
 Alpha virt. eigenvalues --    1.46807   1.52766   1.56474   1.62986   1.63824
 Alpha virt. eigenvalues --    1.64520   1.65390   1.65702   1.68585   1.69896
 Alpha virt. eigenvalues --    1.71865   1.73321   1.81895   1.84332   1.84611
 Alpha virt. eigenvalues --    1.86781   1.89616   1.90116   1.91786   1.96917
 Alpha virt. eigenvalues --    1.98074   2.00888   2.01594   2.08639   2.13313
 Alpha virt. eigenvalues --    2.18193   2.19455   2.24008   2.27898   2.35202
 Alpha virt. eigenvalues --    2.41110   2.43436   2.48124   2.59963   2.62845
 Alpha virt. eigenvalues --    2.63139   2.63778   2.71518   2.72339   2.75419
 Alpha virt. eigenvalues --    2.80601   2.89603   2.91115   3.03456   3.05277
 Alpha virt. eigenvalues --    3.22413   3.31037   3.41294
          Condensed to atoms (all electrons):
               1          2          3          4          5          6
     1  C    5.059859   0.369440   0.071762  -0.097005   0.037955   0.256790
     2  C    0.369440   5.076493   0.253287   0.037368  -0.073115   0.037955
     3  C    0.071762   0.253287   5.058954   0.054392   0.037365  -0.097005
     4  C   -0.097005   0.037368   0.054392   5.058958   0.253293   0.071761
     5  C    0.037955  -0.073115   0.037365   0.253293   5.076481   0.369443
     6  C    0.256790   0.037955  -0.097005   0.071761   0.369443   5.059861
     7  H    0.424931  -0.064329   0.012861  -0.001212   0.014529  -0.066494
     8  H   -0.063054   0.431597  -0.071468   0.009322  -0.001542   0.013405
     9  H    0.013405  -0.001542   0.009322  -0.071470   0.431599  -0.063055
    10  H   -0.066493   0.014529  -0.001212   0.012861  -0.064329   0.424930
    11  O    0.000077  -0.047425   0.220461   0.220455  -0.047423   0.000076
    12  H    0.001079  -0.000279  -0.012933   0.383123  -0.053372   0.010759
    13  H    0.010759  -0.053374   0.383124  -0.012933  -0.000279   0.001079
               7          8          9         10         11         12
     1  C    0.424931  -0.063054   0.013405  -0.066493   0.000077   0.001079
     2  C   -0.064329   0.431597  -0.001542   0.014529  -0.047425  -0.000279
     3  C    0.012861  -0.071468   0.009322  -0.001212   0.220461  -0.012933
     4  C   -0.001212   0.009322  -0.071470   0.012861   0.220455   0.383123
     5  C    0.014529  -0.001542   0.431599  -0.064329  -0.047423  -0.053372
     6  C   -0.066494   0.013405  -0.063055   0.424930   0.000076   0.010759
     7  H    0.695149  -0.014199  -0.000288  -0.012237  -0.000251   0.000011
     8  H   -0.014199   0.690922   0.000035  -0.000288   0.002147  -0.000050
     9  H   -0.000288   0.000035   0.690923  -0.014199   0.002147  -0.007026
    10  H   -0.012237  -0.000288  -0.014199   0.695148  -0.000251  -0.000364
    11  O   -0.000251   0.002147   0.002147  -0.000251   7.980481  -0.029957
    12  H    0.000011  -0.000050  -0.007026  -0.000364  -0.029957   0.680090
    13  H   -0.000364  -0.007026  -0.000050   0.000011  -0.029957  -0.003300
              13
     1  C    0.010759
     2  C   -0.053374
     3  C    0.383124
     4  C   -0.012933
     5  C   -0.000279
     6  C    0.001079
     7  H   -0.000364
     8  H   -0.007026
     9  H   -0.000050
    10  H    0.000011
    11  O   -0.029957
    12  H   -0.003300
    13  H    0.680092
 Mulliken charges:
               1
     1  C   -0.019505
     2  C    0.019395
     3  C    0.081090
     4  C    0.081087
     5  C    0.019396
     6  C   -0.019506
     7  H    0.011894
     8  H    0.010198
     9  H    0.010197
    10  H    0.011895
    11  O   -0.270580
    12  H    0.032219
    13  H    0.032219
 Sum of Mulliken charges =   0.00000
 Mulliken charges with hydrogens summed into heavy atoms:
               1
     1  C   -0.007611
     2  C    0.029593
     3  C    0.113309
     4  C    0.113307
     5  C    0.029593
     6  C   -0.007610
    11  O   -0.270580
 APT charges:
               1
     1  C   -0.006445
     2  C   -0.081755
     3  C    0.285257
     4  C    0.285255
     5  C   -0.081755
     6  C   -0.006442
     7  H    0.025500
     8  H    0.032273
     9  H    0.032273
    10  H    0.025497
    11  O   -0.480470
    12  H   -0.014594
    13  H   -0.014594
 Sum of APT charges =   0.00000
 APT charges with hydrogens summed into heavy atoms:
               1
     1  C    0.019055
     2  C   -0.049482
     3  C    0.270662
     4  C    0.270661
     5  C   -0.049482
     6  C    0.019055
    11  O   -0.480470
 Electronic spatial extent (au):  <R**2>=            584.9948
 Charge=              0.0000 electrons
 Dipole moment (field-independent basis, Debye):
    X=              0.7121    Y=              0.0000    Z=             -1.5960  Tot=              1.7477
 Quadrupole moment (field-independent basis, Debye-Ang):
   XX=            -38.6782   YY=            -36.2555   ZZ=            -44.0905
   XY=              0.0000   XZ=              3.5158   YZ=              0.0000
 Traceless Quadrupole moment (field-independent basis, Debye-Ang):
   XX=              0.9966   YY=              3.4192   ZZ=             -4.4158
   XY=              0.0000   XZ=              3.5158   YZ=              0.0000
 Octapole moment (field-independent basis, Debye-Ang**2):
  XXX=              0.8272  YYY=              0.0000  ZZZ=              2.5301  XYY=             -2.3243
  XXY=              0.0000  XXZ=             -1.7949  XZZ=             -3.2478  YZZ=              0.0000
  YYZ=             -1.8501  XYZ=              0.0001
 Hexadecapole moment (field-independent basis, Debye-Ang**3):
 XXXX=           -360.7946 YYYY=           -295.6700 ZZZZ=            -84.2024 XXXY=             -0.0002
 XXXZ=              9.0159 YYYX=             -0.0002 YYYZ=              0.0001 ZZZX=             -2.7315
 ZZZY=             -0.0001 XXYY=           -107.7547 XXZZ=            -80.8540 YYZZ=            -69.3312
 XXYZ=              0.0000 YYXZ=              0.7430 ZZXY=              0.0000
 N-N= 2.786068460226D+02 E-N=-1.270805603225D+03  KE= 3.037802083874D+02
  Exact polarizability:  74.446   0.000  77.781   7.091   0.000  36.557
 Approx polarizability: 146.376   0.000 160.665  10.853   0.000  67.490
 Calling FoFJK, ICntrl=    100527 FMM=F ISym2X=0 I1Cent= 0 IOpClX= 0 NMat=1 NMatS=1 NMatT=0.
 Full mass-weighted force constant matrix:
 Low frequencies ---  -11.3831   -0.0009   -0.0007    0.0003    9.3976   11.1393
 Low frequencies ---  249.5386  310.4479  444.8596
 Diagonal vibrational polarizability:
        4.6325900       0.8107236       5.3701743
 Harmonic frequencies (cm**-1), IR intensities (KM/Mole), Raman scattering
 activities (A**4/AMU), depolarization ratios for plane and unpolarized
 incident light, reduced masses (AMU), force constants (mDyne/A),
 and normal coordinates:
                      1                      2                      3
                      A                      A                      A
 Frequencies --    249.5386               310.4479               444.8596
 Red. masses --      4.4104                 2.9660                 2.5094
 Frc consts  --      0.1618                 0.1684                 0.2926
 IR Inten    --      5.2205                 0.0119                 9.2404
  Atom  AN      X      Y      Z        X      Y      Z        X      Y      Z
     1   6    -0.13   0.00   0.17     0.05  -0.01  -0.17    -0.08  -0.01  -0.06
     2   6    -0.03   0.00  -0.20     0.03  -0.03  -0.04    -0.05  -0.10   0.10
     3   6    -0.02  -0.03  -0.02    -0.02  -0.07   0.17     0.02   0.03  -0.10
     4   6    -0.02   0.03  -0.02     0.02  -0.07  -0.17     0.02  -0.03  -0.10
     5   6    -0.03   0.00  -0.20    -0.03  -0.03   0.04    -0.05   0.10   0.10
     6   6    -0.13   0.00   0.17    -0.05  -0.01   0.17    -0.08   0.01  -0.06
     7   1    -0.13   0.03   0.29     0.12   0.03  -0.46    -0.09   0.02   0.17
     8   1     0.04   0.05  -0.45     0.06   0.02  -0.26    -0.13  -0.19   0.58
     9   1     0.04  -0.05  -0.45    -0.06   0.02   0.26    -0.13   0.19   0.58
    10   1    -0.13  -0.03   0.29    -0.12   0.03   0.46    -0.09  -0.02   0.17
    11   8     0.30   0.00   0.07     0.00   0.17   0.00     0.19   0.00  -0.01
    12   1    -0.16   0.00   0.16     0.05  -0.15  -0.31    -0.04  -0.05  -0.02
    13   1    -0.16   0.00   0.16    -0.05  -0.15   0.31    -0.04   0.05  -0.02
                      4                      5                      6
                      A                      A                      A
 Frequencies --    525.7501               590.4378               607.9126
 Red. masses --      6.6726                 3.1669                 3.7276
 Frc consts  --      1.0867                 0.6505                 0.8116
 IR Inten    --      0.3400                 3.7045                 1.4522
  Atom  AN      X      Y      Z        X      Y      Z        X      Y      Z
     1   6     0.22  -0.21   0.08     0.10   0.00   0.01    -0.06   0.00   0.21
     2   6     0.19  -0.07  -0.02     0.01   0.19  -0.08     0.04   0.02  -0.22
     3   6     0.26   0.19  -0.02    -0.07   0.13  -0.09    -0.03  -0.09   0.09
     4   6    -0.26   0.19   0.02    -0.07  -0.13  -0.09     0.03  -0.09  -0.09
     5   6    -0.19  -0.07   0.02     0.01  -0.19  -0.08    -0.04   0.02   0.22
     6   6    -0.22  -0.21  -0.08     0.10   0.00   0.01     0.06   0.00  -0.21
     7   1     0.30  -0.04   0.16    -0.05  -0.16   0.37    -0.11  -0.03   0.44
     8   1    -0.10  -0.07  -0.12    -0.16   0.09   0.45     0.11   0.04  -0.29
     9   1     0.10  -0.07   0.12    -0.16  -0.09   0.45    -0.11   0.04   0.29
    10   1    -0.30  -0.04  -0.16    -0.05   0.16   0.37     0.11  -0.03  -0.44
    11   8     0.00   0.14   0.00    -0.02   0.00   0.14     0.00   0.11   0.00
    12   1    -0.30   0.11  -0.01    -0.08  -0.02   0.04     0.10  -0.12  -0.23
    13   1     0.30   0.11   0.01    -0.08   0.02   0.04    -0.10  -0.12   0.23
                      7                      8                      9
                      A                      A                      A
 Frequencies --    680.1340               747.3089               751.0386
 Red. masses --      3.9246                 1.9119                 1.6555
 Frc consts  --      1.0696                 0.6291                 0.5502
 IR Inten    --     19.4449                66.5510                 0.9688
  Atom  AN      X      Y      Z        X      Y      Z        X      Y      Z
     1   6     0.09   0.03   0.02     0.03   0.00  -0.03     0.00  -0.03   0.09
     2   6    -0.05   0.16   0.14     0.06  -0.05  -0.08    -0.03   0.04   0.09
     3   6    -0.15  -0.11  -0.04    -0.06  -0.12   0.07    -0.02   0.03   0.07
     4   6    -0.15   0.11  -0.04    -0.06   0.12   0.07     0.02   0.03  -0.07
     5   6    -0.05  -0.16   0.14     0.06   0.05  -0.08     0.03   0.04  -0.09
     6   6     0.09  -0.03   0.02     0.03   0.00  -0.03     0.00  -0.03  -0.09
     7   1     0.06  -0.12  -0.33    -0.03   0.01   0.45     0.06  -0.02  -0.27
     8   1     0.06   0.20  -0.06     0.06  -0.13   0.31     0.05   0.17  -0.59
     9   1     0.06  -0.20  -0.06     0.06   0.13   0.31    -0.05   0.17   0.60
    10   1     0.06   0.12  -0.33    -0.03  -0.01   0.45    -0.06  -0.02   0.27
    11   8     0.18   0.00  -0.17    -0.04   0.00  -0.07     0.00  -0.09   0.00
    12   1    -0.18   0.34   0.23    -0.10   0.25   0.25    -0.07   0.02   0.07
    13   1    -0.18  -0.34   0.23    -0.10  -0.25   0.25     0.07   0.02  -0.07
                     10                     11                     12
                      A                      A                      A
 Frequencies --    830.6276               912.6231               938.5389
 Red. masses --      3.2984                 1.7079                 5.5554
 Frc consts  --      1.3408                 0.8381                 2.8832
 IR Inten    --      0.0768                 8.7709                10.3753
  Atom  AN      X      Y      Z        X      Y      Z        X      Y      Z
     1   6    -0.06   0.06   0.03    -0.01   0.05  -0.09     0.22  -0.13   0.04
     2   6     0.02  -0.14   0.06    -0.06   0.08   0.05     0.00   0.23   0.04
     3   6     0.02  -0.08  -0.19     0.05  -0.01   0.07    -0.17  -0.14  -0.18
     4   6    -0.02  -0.08   0.19     0.05   0.01   0.07     0.17  -0.14   0.18
     5   6    -0.02  -0.14  -0.06    -0.06  -0.08   0.05     0.00   0.22  -0.04
     6   6     0.06   0.06  -0.03    -0.01  -0.05  -0.09    -0.22  -0.13  -0.04
     7   1     0.01   0.13  -0.17    -0.15  -0.04   0.53     0.25  -0.10  -0.08
     8   1     0.34  -0.03  -0.43    -0.04   0.14  -0.26    -0.06   0.21   0.07
     9   1    -0.34  -0.03   0.43    -0.04  -0.14  -0.26     0.06   0.21  -0.07
    10   1    -0.01   0.13   0.17    -0.15   0.04   0.53    -0.25  -0.10   0.08
    11   8     0.00   0.20   0.00     0.03   0.00  -0.05     0.00   0.08   0.00
    12   1     0.11   0.11   0.17     0.11  -0.16  -0.19     0.20  -0.34  -0.07
    13   1    -0.11   0.11  -0.17     0.11   0.16  -0.19    -0.20  -0.34   0.07
                     13                     14                     15
                      A                      A                      A
 Frequencies --    944.1776               953.9511               958.9575
 Red. masses --      2.4059                 1.7066                 1.3302
 Frc consts  --      1.2637                 0.9150                 0.7207
 IR Inten    --      9.1759                 3.0847                 1.0965
  Atom  AN      X      Y      Z        X      Y      Z        X      Y      Z
     1   6    -0.11   0.09   0.03    -0.08   0.00   0.04     0.00   0.00   0.09
     2   6     0.00   0.12  -0.08    -0.04   0.05  -0.01     0.03  -0.02  -0.05
     3   6     0.09  -0.02   0.10     0.13  -0.01  -0.06    -0.05   0.01   0.02
     4   6     0.09   0.02   0.10    -0.13  -0.01   0.06     0.05   0.01  -0.02
     5   6     0.00  -0.12  -0.08     0.04   0.05   0.01    -0.03  -0.02   0.05
     6   6    -0.11  -0.09   0.03     0.08   0.00  -0.04     0.00   0.00  -0.09
     7   1    -0.04   0.13  -0.35    -0.10  -0.15  -0.39     0.15   0.10  -0.52
     8   1    -0.02   0.02   0.51    -0.14   0.03   0.10     0.02  -0.10   0.33
     9   1    -0.02  -0.02   0.51     0.14   0.03  -0.10    -0.02  -0.10  -0.33
    10   1    -0.04  -0.13  -0.35     0.10  -0.15   0.39    -0.15   0.10   0.52
    11   8     0.02   0.00  -0.08     0.00   0.01   0.00     0.00   0.00   0.00
    12   1     0.18  -0.02  -0.08    -0.12  -0.37  -0.33     0.04   0.19   0.17
    13   1     0.18   0.02  -0.08     0.12  -0.37   0.33    -0.04   0.19  -0.17
                     16                     17                     18
                      A                      A                      A
 Frequencies --    981.5670              1017.7826              1085.2595
 Red. masses --      1.7916                 1.4225                 1.4193
 Frc consts  --      1.0170                 0.8682                 0.9849
 IR Inten    --     15.9014                 6.9078                 0.3413
  Atom  AN      X      Y      Z        X      Y      Z        X      Y      Z
     1   6     0.07  -0.10   0.04     0.00   0.07  -0.01    -0.02  -0.02  -0.02
     2   6    -0.04  -0.02  -0.04     0.05  -0.01   0.01     0.00   0.07   0.00
     3   6    -0.04  -0.02   0.08    -0.09  -0.04  -0.01     0.05  -0.08   0.04
     4   6    -0.04   0.02   0.08    -0.09   0.04  -0.01    -0.05  -0.08  -0.04
     5   6    -0.04   0.02  -0.04     0.05   0.01   0.01     0.00   0.07   0.00
     6   6     0.07   0.10   0.04     0.00  -0.07  -0.01     0.02  -0.02   0.02
     7   1     0.01  -0.29  -0.10     0.05   0.17   0.01    -0.16  -0.26  -0.01
     8   1    -0.28  -0.07   0.12     0.44   0.00   0.08     0.05   0.06   0.05
     9   1    -0.28   0.07   0.12     0.44   0.00   0.08    -0.05   0.06  -0.05
    10   1     0.01   0.29  -0.10     0.05  -0.17   0.01     0.16  -0.26   0.01
    11   8     0.05   0.00  -0.07     0.02   0.00   0.04     0.00   0.06   0.00
    12   1    -0.03  -0.39  -0.35    -0.11  -0.33  -0.36    -0.31   0.09   0.52
    13   1    -0.03   0.39  -0.35    -0.11   0.33  -0.36     0.31   0.09  -0.52
                     19                     20                     21
                      A                      A                      A
 Frequencies --   1141.6126              1152.4118              1212.1669
 Red. masses --      1.1209                 1.1235                 1.6868
 Frc consts  --      0.8607                 0.8791                 1.4603
 IR Inten    --      4.8649                 1.1652                11.0643
  Atom  AN      X      Y      Z        X      Y      Z        X      Y      Z
     1   6     0.03   0.03   0.01     0.01   0.03   0.01     0.01   0.00   0.00
     2   6     0.01  -0.01   0.00    -0.04  -0.02  -0.01    -0.03   0.01  -0.01
     3   6    -0.03   0.03   0.01     0.01  -0.04   0.00     0.00  -0.13  -0.05
     4   6    -0.03  -0.03   0.01    -0.01  -0.04   0.00     0.00   0.13  -0.05
     5   6     0.01   0.01   0.00     0.04  -0.02   0.01    -0.03  -0.01  -0.01
     6   6     0.03  -0.03   0.01    -0.01   0.03  -0.01     0.01   0.00   0.00
     7   1     0.29   0.52   0.06     0.16   0.31   0.04     0.06   0.09   0.01
     8   1    -0.35  -0.02  -0.05    -0.56  -0.03  -0.10    -0.25  -0.01   0.01
     9   1    -0.35   0.02  -0.05     0.56  -0.03   0.10    -0.25   0.01   0.01
    10   1     0.29  -0.52   0.06    -0.16   0.31  -0.04     0.06  -0.09   0.01
    11   8     0.01   0.00  -0.04     0.00   0.02   0.00     0.00   0.00   0.12
    12   1    -0.06  -0.08   0.02    -0.12  -0.05   0.15     0.35   0.33  -0.41
    13   1    -0.06   0.08   0.02     0.12  -0.05  -0.15     0.35  -0.33  -0.41
                     22                     23                     24
                      A                      A                      A
 Frequencies --   1301.1000              1338.8765              1374.0761
 Red. masses --      1.2006                 1.9816                 1.7435
 Frc consts  --      1.1975                 2.0929                 1.9395
 IR Inten    --      0.4949                 3.7063                 2.3656
  Atom  AN      X      Y      Z        X      Y      Z        X      Y      Z
     1   6     0.03   0.04   0.01     0.03   0.08   0.01    -0.02  -0.07  -0.01
     2   6     0.04   0.01   0.02    -0.03   0.01   0.00    -0.10   0.06  -0.01
     3   6     0.04  -0.05   0.00     0.09  -0.13  -0.07     0.10  -0.06   0.01
     4   6    -0.04  -0.05   0.00     0.09   0.13  -0.07    -0.10  -0.06  -0.01
     5   6    -0.04   0.01  -0.02    -0.03  -0.01   0.00     0.10   0.06   0.01
     6   6    -0.03   0.04  -0.01     0.03  -0.08   0.01     0.02  -0.07   0.01
     7   1    -0.14  -0.29  -0.05    -0.05  -0.08  -0.05     0.22   0.40   0.06
     8   1    -0.30   0.01  -0.06    -0.25   0.00   0.00     0.25   0.08   0.07
     9   1     0.30   0.01   0.06    -0.25   0.00   0.00    -0.25   0.08  -0.07
    10   1     0.14  -0.30   0.05    -0.05   0.08  -0.05    -0.22   0.40  -0.06
    11   8     0.00  -0.02   0.00    -0.05   0.00   0.06     0.00  -0.01   0.00
    12   1     0.33   0.40  -0.14    -0.42  -0.39   0.22     0.20   0.37  -0.09
    13   1    -0.33   0.40   0.14    -0.42   0.39   0.22    -0.20   0.37   0.09
                     25                     26                     27
                      A                      A                      A
 Frequencies --   1418.1749              1557.1035              1630.9310
 Red. masses --      2.2255                 6.4320                 5.5922
 Frc consts  --      2.6372                 9.1882                 8.7640
 IR Inten    --      7.8670                 1.2180                 0.4305
  Atom  AN      X      Y      Z        X      Y      Z        X      Y      Z
     1   6    -0.04   0.13   0.00     0.20   0.30   0.07     0.26   0.16   0.07
     2   6     0.16  -0.04   0.03    -0.25  -0.16  -0.08    -0.30  -0.11  -0.07
     3   6    -0.07   0.04   0.01     0.00   0.11   0.03     0.07   0.00   0.02
     4   6    -0.07  -0.04   0.01     0.00  -0.11   0.03    -0.07   0.00  -0.02
     5   6     0.16   0.04   0.03    -0.25   0.16  -0.08     0.30  -0.11   0.07
     6   6    -0.04  -0.13   0.00     0.20  -0.30   0.07    -0.26   0.16  -0.07
     7   1    -0.29  -0.32  -0.08    -0.04  -0.22  -0.05     0.01  -0.42  -0.04
     8   1    -0.46  -0.04  -0.13     0.19  -0.20   0.07     0.28  -0.13   0.05
     9   1    -0.46   0.04  -0.13     0.19   0.20   0.07    -0.28  -0.13  -0.05
    10   1    -0.29   0.32  -0.08    -0.04   0.22  -0.05    -0.01  -0.42   0.04
    11   8     0.01   0.00  -0.01     0.01   0.00  -0.02     0.00  -0.01   0.00
    12   1     0.03   0.05  -0.09     0.26   0.23  -0.03    -0.12  -0.04   0.01
    13   1     0.03  -0.05  -0.09     0.26  -0.23  -0.03     0.12  -0.04  -0.01
                     28                     29                     30
                      A                      A                      A
 Frequencies --   3030.2737              3037.9936              3092.3305
 Red. masses --      1.0879                 1.0912                 1.0848
 Frc consts  --      5.8855                 5.9335                 6.1118
 IR Inten    --     15.1129                55.2064                 0.1650
  Atom  AN      X      Y      Z        X      Y      Z        X      Y      Z
     1   6     0.00   0.00   0.00     0.00   0.00   0.00     0.04  -0.02   0.01
     2   6     0.00   0.00   0.00     0.00   0.00   0.00     0.00   0.03   0.01
     3   6    -0.05  -0.03  -0.03    -0.05  -0.03  -0.03     0.00   0.00   0.00
     4   6     0.05  -0.03   0.03    -0.05   0.03  -0.03     0.00   0.00   0.00
     5   6     0.00   0.00   0.00     0.00   0.00   0.00     0.00   0.03  -0.01
     6   6     0.00   0.00   0.00     0.00   0.00   0.00    -0.04  -0.02  -0.01
     7   1    -0.01   0.01   0.00     0.00   0.00   0.00    -0.53   0.29  -0.08
     8   1     0.00  -0.06  -0.01     0.00  -0.07  -0.01     0.02  -0.35  -0.07
     9   1     0.00  -0.06   0.01     0.00   0.07  -0.01    -0.02  -0.35   0.07
    10   1     0.01   0.01   0.00     0.00   0.00   0.00     0.53   0.29   0.08
    11   8     0.00   0.00   0.00     0.00   0.00   0.00     0.00   0.00   0.00
    12   1    -0.52   0.33  -0.33     0.52  -0.33   0.33     0.03  -0.02   0.02
    13   1     0.52   0.33   0.34     0.52   0.33   0.33    -0.03  -0.02  -0.02
                     31                     32                     33
                      A                      A                      A
 Frequencies --   3100.4130              3111.7768              3118.7234
 Red. masses --      1.0877                 1.0964                 1.0996
 Frc consts  --      6.1604                 6.2553                 6.3016
 IR Inten    --      7.6763                20.4801                 7.9345
  Atom  AN      X      Y      Z        X      Y      Z        X      Y      Z
     1   6    -0.03   0.02  -0.01     0.03  -0.01   0.01    -0.04   0.02  -0.01
     2   6     0.00  -0.04  -0.01     0.00  -0.05  -0.01     0.00   0.04   0.01
     3   6     0.00   0.00   0.00     0.00   0.00   0.00     0.00   0.00   0.00
     4   6     0.00   0.00   0.00     0.00   0.00   0.00     0.00   0.00   0.00
     5   6     0.00   0.04  -0.01     0.00  -0.05   0.01     0.00  -0.04   0.01
     6   6    -0.03  -0.02  -0.01    -0.03  -0.01  -0.01    -0.04  -0.02  -0.01
     7   1     0.40  -0.22   0.06    -0.32   0.17  -0.05     0.46  -0.25   0.07
     8   1    -0.03   0.52   0.10    -0.03   0.59   0.11     0.02  -0.45  -0.09
     9   1    -0.03  -0.52   0.10     0.03   0.59  -0.11     0.02   0.45  -0.09
    10   1     0.40   0.22   0.06     0.32   0.17   0.05     0.46   0.25   0.07
    11   8     0.00   0.00   0.00     0.00   0.00   0.00     0.00   0.00   0.00
    12   1     0.04  -0.02   0.02    -0.04   0.02  -0.02    -0.03   0.02  -0.02
    13   1     0.04   0.02   0.02     0.04   0.02   0.02    -0.03  -0.02  -0.02

 -------------------
 - Thermochemistry -
 -------------------
 Temperature   298.150 Kelvin.  Pressure   1.00000 Atm.
 Atom     1 has atomic number  6 and mass  12.00000
 Atom     2 has atomic number  6 and mass  12.00000
 Atom     3 has atomic number  6 and mass  12.00000
 Atom     4 has atomic number  6 and mass  12.00000
 Atom     5 has atomic number  6 and mass  12.00000
 Atom     6 has atomic number  6 and mass  12.00000
 Atom     7 has atomic number  1 and mass   1.00783
 Atom     8 has atomic number  1 and mass   1.00783
 Atom     9 has atomic number  1 and mass   1.00783
 Atom    10 has atomic number  1 and mass   1.00783
 Atom    11 has atomic number  8 and mass  15.99491
 Atom    12 has atomic number  1 and mass   1.00783
 Atom    13 has atomic number  1 and mass   1.00783
 Molecular mass:    94.04186 amu.
 Principal axes and moments of inertia in atomic units:
                           1         2         3
     Eigenvalues --   399.63175 510.10610 796.31859
           X            0.99936   0.00000   0.03581
           Y            0.00000   1.00000   0.00000
           Z           -0.03581   0.00000   0.99936
 This molecule is an asymmetric top.
 Rotational symmetry number  1.
 Rotational temperatures (Kelvin)      0.21673     0.16980     0.10877
 Rotational constants (GHZ):           4.51601     3.53797     2.26636
 Zero-point vibrational energy     264068.9 (Joules/Mol)
                                   63.11399 (Kcal/Mol)
 Warning -- explicit consideration of   6 degrees of freedom as
           vibrations may cause significant error
 Vibrational temperatures:    359.03   446.66   640.05   756.44   849.51
          (Kelvin)            874.65   978.56  1075.21  1080.58  1195.09
                             1313.06  1350.35  1358.46  1372.52  1379.72
                             1412.25  1464.36  1561.44  1642.52  1658.06
                             1744.04  1871.99  1926.34  1976.99  2040.43
                             2240.32  2346.54  4359.88  4370.99  4449.17
                             4460.80  4477.15  4487.14
 
 Zero-point correction=                           0.100579 (Hartree/Particle)
 Thermal correction to Energy=                    0.105911
 Thermal correction to Enthalpy=                  0.106856
 Thermal correction to Gibbs Free Energy=         0.071867
 Sum of electronic and zero-point Energies=           -307.074425
 Sum of electronic and thermal Energies=              -307.069093
 Sum of electronic and thermal Enthalpies=            -307.068148
 Sum of electronic and thermal Free Energies=         -307.103137
 
                     E (Thermal)             CV                S
                      KCal/Mol        Cal/Mol-Kelvin    Cal/Mol-Kelvin
 Total                   66.460             21.519             73.639
 Electronic               0.000              0.000              0.000
 Translational            0.889              2.981             39.535
 Rotational               0.889              2.981             26.587
 Vibrational             64.683             15.557              7.517
 Vibration     1          0.662              1.764              1.734
 Vibration     2          0.699              1.654              1.360
 Vibration     3          0.804              1.372              0.811
 Vibration     4          0.881              1.193              0.597
 Vibration     5          0.948              1.052              0.466
 Vibration     6          0.967              1.015              0.436
                       Q            Log10(Q)             Ln(Q)
 Total Bot       0.877692D-33        -33.056658        -76.115768
 Total V=0       0.160754D+14         13.206161         30.408311
 Vib (Bot)       0.169768D-45        -45.770145       -105.389654
 Vib (Bot)    1  0.782301D+00         -0.106626         -0.245515
 Vib (Bot)    2  0.608939D+00         -0.215426         -0.496038
 Vib (Bot)    3  0.387090D+00         -0.412188         -0.949098
 Vib (Bot)    4  0.305395D+00         -0.515139         -1.186151
 Vib (Bot)    5  0.255381D+00         -0.592812         -1.365001
 Vib (Bot)    6  0.243626D+00         -0.613276         -1.412121
 Vib (V=0)       0.310938D+01          0.492674          1.134425
 Vib (V=0)    1  0.142844D+01          0.154861          0.356581
 Vib (V=0)    2  0.128791D+01          0.109886          0.253023
 Vib (V=0)    3  0.113233D+01          0.053972          0.124276
 Vib (V=0)    4  0.108589D+01          0.035785          0.082399
 Vib (V=0)    5  0.106144D+01          0.025897          0.059630
 Vib (V=0)    6  0.105620D+01          0.023744          0.054673
 Electronic      0.100000D+01          0.000000          0.000000
 Translational   0.358457D+08          7.554437         17.394734
 Rotational      0.144228D+06          5.159050         11.879152
 ***** Axes restored to original set *****
 -------------------------------------------------------------------
 Center     Atomic                   Forces (Hartrees/Bohr)
 Number     Number              X              Y              Z
 -------------------------------------------------------------------
      1        6           0.000011914   -0.000014123    0.000005067
      2        6          -0.000012010    0.000012916   -0.000009780
      3        6           0.000027559   -0.000045159    0.000054294
      4        6           0.000022505    0.000043179    0.000056845
      5        6          -0.000005415   -0.000013158   -0.000011625
      6        6           0.000003661    0.000014803    0.000007436
      7        1          -0.000010446   -0.000002618    0.000007821
      8        1           0.000004933    0.000002930   -0.000000107
      9        1           0.000004636   -0.000004438   -0.000000614
     10        1          -0.000007113    0.000004117    0.000007165
     11        8          -0.000029822    0.000000653   -0.000080813
     12        1          -0.000005096   -0.000021265   -0.000018020
     13        1          -0.000005306    0.000022163   -0.000017668
 -------------------------------------------------------------------
 Cartesian Forces:  Max     0.000080813 RMS     0.000023844

 GradGradGradGradGradGradGradGradGradGradGradGradGradGradGradGradGradGrad
 Berny optimization.
 Search for a local minimum.
 Step number   1 out of a maximum of    2
 All quantities printed in internal units (Hartrees-Bohrs-Radians)
 Second derivative matrix not updated -- analytic derivatives used.
 ITU=  0
     Eigenvalues ---    0.00807   0.01007   0.02204   0.02665   0.03685
     Eigenvalues ---    0.04502   0.04822   0.04974   0.05689   0.05860
     Eigenvalues ---    0.07945   0.08369   0.08394   0.12259   0.14219
     Eigenvalues ---    0.16062   0.17015   0.17920   0.18891   0.23045
     Eigenvalues ---    0.27220   0.29067   0.39710   0.41729   0.61753
     Eigenvalues ---    0.64212   0.80463   0.86149   0.91177   0.92390
     Eigenvalues ---    0.97010   1.18356   1.29537
 Angle between quadratic step and forces=  60.62 degrees.
 Linear search not attempted -- first point.
 B after Tr=     0.000012    0.000000    0.000016
         Rot=    1.000000    0.000000    0.000002    0.000000 Ang=   0.00 deg.
 Variable       Old X    -DE/DX   Delta X   Delta X   Delta X     New X
                                 (Linear)    (Quad)   (Total)
    X1       -2.73154   0.00001   0.00000   0.00004   0.00005  -2.73149
    Y1        1.37085  -0.00001   0.00000  -0.00002  -0.00002   1.37083
    Z1        0.24593   0.00001   0.00000   0.00004   0.00004   0.24597
    X2       -0.61000  -0.00001   0.00000   0.00000   0.00001  -0.60999
    Y2        2.72296   0.00001   0.00000   0.00003   0.00003   2.72299
    Z2       -0.36530  -0.00001   0.00000  -0.00005  -0.00004  -0.36534
    X3        1.85291   0.00003   0.00000   0.00006   0.00008   1.85299
    Y3        1.45424  -0.00005   0.00000   0.00003   0.00003   1.45427
    Z3       -0.59326   0.00005   0.00000   0.00015   0.00017  -0.59309
    X4        1.85293   0.00002   0.00000   0.00006   0.00007   1.85300
    Y4       -1.45422   0.00004   0.00000  -0.00004  -0.00004  -1.45426
    Z4       -0.59328   0.00006   0.00000   0.00016   0.00019  -0.59309
    X5       -0.60998  -0.00001   0.00000   0.00000   0.00001  -0.60997
    Y5       -2.72296  -0.00001   0.00000  -0.00003  -0.00003  -2.72300
    Z5       -0.36530  -0.00001   0.00000  -0.00005  -0.00003  -0.36534
    X6       -2.73152   0.00000   0.00000   0.00003   0.00004  -2.73148
    Y6       -1.37086   0.00001   0.00000   0.00002   0.00002  -1.37085
    Z6        0.24593   0.00001   0.00000   0.00004   0.00004   0.24597
    X7       -4.54627  -0.00001   0.00000  -0.00007  -0.00006  -4.54633
    Y7        2.35764   0.00000   0.00000  -0.00017  -0.00017   2.35747
    Z7        0.51442   0.00001   0.00000   0.00006   0.00006   0.51448
    X8       -0.71968   0.00000   0.00000   0.00008   0.00010  -0.71959
    Y8        4.76640   0.00000   0.00000   0.00001   0.00001   4.76641
    Z8       -0.75096   0.00000   0.00000  -0.00020  -0.00018  -0.75114
    X9       -0.71965   0.00000   0.00000   0.00008   0.00010  -0.71955
    Y9       -4.76640   0.00000   0.00000  -0.00002  -0.00002  -4.76642
    Z9       -0.75094   0.00000   0.00000  -0.00022  -0.00020  -0.75114
   X10       -4.54625  -0.00001   0.00000  -0.00007  -0.00006  -4.54631
   Y10       -2.35768   0.00000   0.00000   0.00017   0.00017  -2.35751
   Z10        0.51444   0.00001   0.00000   0.00004   0.00004   0.51448
   X11        2.70185  -0.00003   0.00000  -0.00006  -0.00005   2.70181
   Y11        0.00000   0.00000   0.00000   0.00001   0.00001   0.00001
   Z11        1.52915  -0.00008   0.00000  -0.00011  -0.00009   1.52906
   X12        3.39015  -0.00001   0.00000  -0.00016  -0.00014   3.39001
   Y12       -2.45213  -0.00002   0.00000  -0.00030  -0.00030  -2.45243
   Z12       -1.60421  -0.00002   0.00000  -0.00001   0.00001  -1.60419
   X13        3.39013  -0.00001   0.00000  -0.00016  -0.00014   3.38999
   Y13        2.45215   0.00002   0.00000   0.00031   0.00031   2.45245
   Z13       -1.60419  -0.00002   0.00000  -0.00003  -0.00001  -1.60420
         Item               Value     Threshold  Converged?
 Maximum Force            0.000081     0.000450     YES
 RMS     Force            0.000024     0.000300     YES
 Maximum Displacement     0.000307     0.001800     YES
 RMS     Displacement     0.000112     0.001200     YES
 Predicted change in Energy=-2.517295D-08
 Optimization completed.
    -- Stationary point found.
 GradGradGradGradGradGradGradGradGradGradGradGradGradGradGradGradGradGrad

 1\1\GINC-QC0019\Freq\RBP86\SVP\C6H6O1\ELIOT\05-Oct-2018\0\\# freq bp86
 /SVP\\benzox-bp86.log\\0,1\C,-1.44547,0.72542,0.13014\C,-0.3228,1.4409
 3,-0.19331\C,0.98052,0.76955,-0.31394\C,0.98053,-0.76954,-0.31395\C,-0
 .32279,-1.44093,-0.19331\C,-1.44546,-0.72543,0.13014\H,-2.40578,1.2476
 1,0.27222\H,-0.38084,2.52227,-0.39739\H,-0.38082,-2.52227,-0.39738\H,-
 2.40577,-1.24763,0.27223\O,1.42976,0.,0.80919\H,1.79399,-1.29761,-0.84
 891\H,1.79398,1.29762,-0.8489\\Version=ES64L-G09RevE.01\State=1-A\HF=-
 307.175004\RMSD=9.319e-09\RMSF=2.384e-05\ZeroPoint=0.1005785\Thermal=0
 .1059114\Dipole=-0.2801477,-0.0000008,-0.627925\DipoleDeriv=0.0020788,
 -0.1133735,-0.0397036,-0.1103905,0.0961534,-0.0109291,0.0071571,0.0671
 763,-0.1175662,-0.021742,-0.0945413,0.0079944,-0.0759117,-0.050139,-0.
 0298306,0.0359836,0.0081243,-0.1733851,0.3905555,0.1083433,-0.0453372,
 0.1736381,0.1276015,-0.0765188,0.0534762,-0.1570667,0.3376129,0.390554
 4,-0.1083406,-0.0453401,-0.1736353,0.1275991,0.076517,0.0534751,0.1570
 661,0.3376111,-0.0217419,0.0945378,0.0079944,0.0759077,-0.0501387,0.02
 98277,0.0359869,-0.008128,-0.1733856,0.0020839,0.1133776,-0.0397076,0.
 1103941,0.0961557,0.0109284,0.0071477,-0.0671764,-0.1175642,-0.0592392
 ,0.0707124,0.0348007,0.0590515,0.0182359,-0.0105412,0.0216568,0.000980
 5,0.117502,0.0574686,0.0116864,0.0147583,0.0118259,-0.0791644,0.037472
 8,0.000607,0.02373,0.1185161,0.0574691,-0.0116853,0.0147588,-0.0118246
 ,-0.0791647,-0.0374717,0.000609,-0.0237273,0.118516,-0.059243,-0.07071
 53,0.0348023,-0.0590543,0.0182335,0.0105425,0.0216602,-0.0009798,0.117
 5004,-0.5999023,0.0000002,-0.0962311,-0.000002,-0.2260104,0.0000038,-0
 .3310458,-0.0000017,-0.6154968,-0.0691707,0.0623896,0.0756058,0.085731
 4,0.0003193,-0.0778386,0.0466422,-0.0711966,0.0250703,-0.0691713,-0.06
 23913,0.0756048,-0.0857303,0.0003189,0.077838,0.0466441,0.0711994,0.02
 50691\Polar=74.4460701,-0.0000176,77.7806438,-7.0906829,-0.0000476,36.
 5572009\PG=C01 [X(C6H6O1)]\NImag=0\\0.71518430,0.02045130,0.60301107,-
 0.12693069,-0.02976748,0.14900048,-0.32788444,-0.11880352,0.07041449,0
 .62751856,-0.15219488,-0.19182048,0.05212172,0.06162988,0.66690076,0.0
 7821167,0.04598815,-0.07172765,-0.10126466,-0.11599732,0.16296508,-0.0
 3840925,-0.00533863,0.00921095,-0.21070845,0.06962547,0.02548230,0.557
 30495,0.00779037,0.04116830,-0.00933958,0.02828499,-0.11243664,0.00708
 474,0.01735843,0.44782228,0.00830297,0.00048472,-0.00131116,0.02977698
 ,-0.00254350,-0.06083829,-0.11690391,-0.14723890,0.28810598,-0.0066106
 4,-0.01081302,0.00257475,0.01177859,0.01760253,0.00423635,-0.04145447,
 0.00317824,0.02888347,0.55729676,-0.01203707,-0.02595190,0.00940369,0.
 03340167,-0.02139568,-0.01095858,-0.00317768,-0.14587170,0.04500245,-0
 .01736233,0.44782130,0.00460502,0.00539406,-0.00604313,-0.01779309,0.0
 0278893,-0.00489046,0.02888426,-0.04500395,-0.00060319,-0.11690496,0.1
 4723933,0.28810899,0.01811855,0.04334703,-0.00332058,-0.02601927,-0.00
 423698,0.00569802,0.01177933,-0.03340082,-0.01779334,-0.21070065,-0.02
 828178,0.02977773,0.62752051,0.02156149,-0.03199509,-0.00674746,0.0042
 3678,-0.00001656,-0.00176722,-0.01760238,-0.02139609,-0.00278895,-0.06
 962200,-0.11243611,0.00254433,-0.06164149,0.66690738,0.00089531,-0.008
 90136,0.00431252,0.00569813,0.00176719,0.00248703,0.00423606,0.0109589
 2,-0.00489021,0.02548317,-0.00708414,-0.06083875,-0.10126962,0.1159969
 4,0.16296458,-0.10627194,-0.02395108,0.00690786,0.01811926,-0.02156103
 ,0.00089539,-0.00661107,0.01203705,0.00460510,-0.03840899,-0.00779085,
 0.00830263,-0.32789489,0.15220104,0.07821557,0.71518313,0.02395365,-0.
 25713432,-0.00228496,-0.04334664,-0.03199550,0.00890133,0.01081326,-0.
 02595173,-0.00539440,0.00533793,0.04116840,-0.00048440,0.11880956,-0.1
 9182182,-0.04598935,-0.02046480,0.60301231,0.00690786,0.00228528,-0.05
 506896,-0.00332060,0.00674749,0.00431251,0.00257485,-0.00940360,-0.006
 04317,0.00921099,0.00933948,-0.00131109,0.07041856,-0.05212321,-0.0717
 2718,-0.12693486,0.02976783,0.14900222,-0.25513127,0.11192000,0.033885
 16,-0.01763697,0.01385421,0.00216237,-0.00134979,-0.00381180,0.0038866
 3,0.00022472,-0.00058035,-0.00011979,0.00127382,-0.00011458,-0.0000587
 1,0.00237838,-0.00347816,0.00017404,0.26931754,0.11195608,-0.11277345,
 -0.01561670,-0.01555704,0.00991090,0.00221069,-0.00227481,-0.00115338,
 0.00185046,-0.00089117,-0.00059620,0.00023990,-0.00163297,-0.00494435,
 0.00005232,0.02602359,-0.00992749,-0.00345920,-0.11829365,0.11764495,0
 .03323758,-0.01213704,-0.04003584,0.00425801,-0.00444259,0.00364615,0.
 00207900,0.00213650,0.00854034,-0.00098019,0.00021629,-0.00033258,0.00
 133297,0.00104992,0.00304606,-0.00215804,-0.00061289,0.00233708,-0.037
 84942,0.01609185,0.02976433,0.00374397,-0.02543965,0.00393338,-0.05036
 190,0.01810697,0.00308113,0.00283901,0.02265935,-0.00429852,-0.0036015
 8,0.00053071,-0.00005178,-0.00005323,-0.00042618,-0.00007245,-0.003157
 86,-0.00076769,0.00262122,0.00067493,-0.00002417,-0.00123468,0.0512256
 1,0.00317688,-0.01152701,0.00167027,0.01699782,-0.31147767,0.05336274,
 -0.00404104,-0.00652831,0.00227863,0.00114946,-0.00080084,0.00046112,0
 .00104710,0.00079989,-0.00041757,-0.00252903,0.00171267,0.00313713,-0.
 00035910,0.00066590,-0.00136387,-0.01629645,0.32800049,-0.00444895,0.0
 0369302,0.00475395,0.00798458,0.05362425,-0.04192664,-0.00225917,0.004
 28693,0.00635604,-0.00234021,-0.00832406,0.00327682,0.00430750,-0.0000
 7932,-0.00196406,0.00228457,0.00362752,0.00837911,-0.00148068,-0.00074
 497,-0.00545961,-0.00258871,-0.05824638,0.03163127,-0.00315783,0.00076
 764,0.00262129,-0.00005321,0.00042620,-0.00007245,-0.00360166,-0.00053
 071,-0.00005171,0.00283916,-0.02265944,-0.00429826,-0.05036088,-0.0181
 0503,0.00308180,0.00374363,0.02543997,0.00393333,-0.00003011,0.0011085
 2,-0.00021801,0.00013693,-0.00002892,-0.00016874,0.05122480,0.00252896
 ,0.00171267,-0.00313702,-0.00104707,0.00079990,0.00041755,-0.00114950,
 -0.00080081,-0.00046108,0.00404109,-0.00652847,-0.00227858,-0.01699547
 ,-0.31148338,-0.05336132,-0.00317689,-0.01152686,-0.00167011,-0.000080
 52,-0.00053371,0.00018502,0.00002892,0.00000200,0.00036684,0.01629423,
 0.32800620,0.00228468,-0.00362748,0.00837920,0.00430756,0.00007934,-0.
 00196405,-0.00234036,0.00832407,0.00327696,-0.00225924,-0.00428688,0.0
 0635605,0.00798532,-0.05362271,-0.04192552,-0.00444883,-0.00369312,0.0
 0475397,-0.00007107,-0.00071172,0.00040638,-0.00016873,-0.00036685,-0.
 00128774,-0.00258953,0.05824480,0.03162995,0.00237838,0.00347803,0.000
 17407,0.00127384,0.00011460,-0.00005868,0.00022471,0.00058036,-0.00011
 978,-0.00134975,0.00381181,0.00388668,-0.01763720,-0.01385443,0.002162
 67,-0.25511973,-0.11191515,0.03388527,0.00063246,-0.00012461,-0.000169
 69,-0.00003012,0.00008052,-0.00007107,0.00067492,0.00035910,-0.0014807
 3,0.26930620,-0.02602349,-0.00992789,0.00345941,0.00163302,-0.00494436
 ,-0.00005227,0.00089119,-0.00059618,-0.00023988,0.00227479,-0.00115329
 ,-0.00185038,0.01555663,0.00991082,-0.00221078,-0.11195130,-0.11277341
 ,0.01561718,0.00012462,0.00100827,-0.00011631,-0.00110854,-0.00053372,
 0.00071169,0.00002421,0.00066594,0.00074492,0.11828912,0.11764528,-0.0
 0215802,0.00061267,0.00233717,0.00133304,-0.00104984,0.00304603,-0.000
 98019,-0.00021625,-0.00033256,0.00207888,-0.00213657,0.00854034,0.0042
 5822,0.00444258,0.00364608,0.03323783,0.01213785,-0.04003787,-0.000169
 66,0.00011628,-0.00171546,-0.00021802,-0.00018502,0.00040636,-0.001234
 74,0.00136382,-0.00545968,-0.03784984,-0.01609249,0.02976643,-0.000119
 58,-0.00051793,-0.00070373,-0.01069847,0.01062643,-0.02770833,-0.06783
 528,0.03949032,-0.02963869,-0.06783491,-0.03949035,-0.02963974,-0.0106
 9868,-0.01062647,-0.02770869,-0.00011974,0.00051789,-0.00070378,0.0007
 2337,0.00035988,0.00184114,-0.00174875,0.00061192,-0.00088647,-0.00174
 870,-0.00061198,-0.00088639,0.00072339,-0.00035987,0.00184116,0.129248
 66,-0.00488777,-0.00241091,-0.00076432,0.02304868,-0.01314106,0.019203
 29,0.01353895,-0.06866151,0.06486917,-0.01353875,-0.06866011,-0.064869
 11,-0.02304941,-0.01314109,-0.01920401,0.00488779,-0.00241121,0.000764
 12,0.00001845,0.00018475,-0.00142814,0.00310400,-0.00058169,0.00180819
 ,-0.00310393,-0.00058178,-0.00180801,-0.00001842,0.00018475,0.00142823
 ,0.00000014,0.19105452,-0.00159176,-0.00488891,0.00397208,-0.00223019,
 0.00364084,0.00154552,-0.03198083,0.12248916,-0.14536061,-0.03198003,-
 0.12248884,-0.14536312,-0.00223060,-0.00364133,0.00154477,-0.00159161,
 0.00488892,0.00397204,-0.00037884,-0.00013022,0.00009303,-0.00034587,-
 0.00043081,-0.00356028,-0.00034599,0.00043073,-0.00356028,-0.00037886,
 0.00013022,0.00009306,0.08551939,0.00000024,0.32554550,0.00085222,0.00
 010394,-0.00034726,-0.00079397,0.00060443,-0.00015572,-0.00190330,-0.0
 0319133,-0.00056553,-0.20027493,0.09044451,0.09391672,-0.01453342,0.01
 459769,0.00949252,-0.00269243,-0.00479587,0.00158035,-0.00001869,0.000
 11545,-0.00003827,0.00001775,0.00002564,0.00022129,0.00031521,-0.00016
 522,-0.00055395,-0.00105839,0.00076507,-0.00010039,0.01505434,-0.00722
 048,-0.00623230,0.20433684,0.00117156,-0.00042988,0.00032940,-0.001479
 01,0.00018359,-0.00098191,0.01201340,-0.00698191,-0.01326820,0.0906568
 8,-0.09861272,-0.05744966,-0.01100054,0.00943283,0.00741123,-0.0025529
 2,-0.00192120,-0.00067298,0.00000447,0.00010499,0.00002808,0.00027160,
 -0.00016237,-0.00023843,0.00063887,0.00043065,0.00048522,-0.00079644,0
 .00040879,-0.00039317,0.00221871,-0.01091716,-0.00714117,-0.09121522,0
 .10800084,-0.00045993,0.00068217,-0.00022341,0.00108145,0.00159081,0.0
 0157597,-0.01226377,0.00443938,0.00153745,0.09426083,-0.05148238,-0.08
 843764,-0.00024567,-0.00167273,0.00176876,0.00114430,-0.00018218,0.001
 65472,0.00000015,-0.00003801,-0.00020401,-0.00034204,0.00016676,0.0000
 8200,-0.00031493,0.00006613,-0.00068722,0.00001984,-0.00013931,-0.0000
 8588,0.01433723,-0.02377229,-0.01946080,-0.09755437,0.07111662,0.10271
 097,-0.00269249,0.00479589,0.00158030,-0.01453356,-0.01459783,0.009492
 63,-0.20027474,-0.09044445,0.09391632,-0.00190332,0.00319114,-0.000565
 39,-0.00079397,-0.00060442,-0.00015577,0.00085224,-0.00010394,-0.00034
 724,-0.00105838,-0.00076509,-0.00010039,0.00031522,0.00016521,-0.00055
 396,0.00001775,-0.00002564,0.00022129,-0.00001869,-0.00011545,-0.00003
 827,0.01505435,0.00722075,-0.00623250,0.00069876,0.00006863,0.00033691
 ,0.20433683,0.00255292,-0.00192112,0.00067303,0.01100044,0.00943278,-0
 .00741119,-0.09065667,-0.09861234,0.05744947,-0.01201365,-0.00698270,0
 .01326840,0.00147912,0.00018356,0.00098193,-0.00117155,-0.00042984,-0.
 00032941,0.00079641,0.00040879,0.00039318,-0.00063886,0.00043065,-0.00
 048527,-0.00027161,-0.00016237,0.00023842,-0.00000447,0.00010499,-0.00
 002808,-0.00221869,-0.01091751,0.00714118,-0.00006861,0.00046355,-0.00
 077498,0.09121521,0.10800156,0.00114425,0.00018219,0.00165474,-0.00024
 570,0.00167269,0.00176880,0.09426082,0.05148258,-0.08843758,-0.0122637
 9,-0.00443977,0.00153774,0.00108149,-0.00159085,0.00157592,-0.00045991
 ,-0.00068215,-0.00022340,0.00001984,0.00013931,-0.00008587,-0.00031495
 ,-0.00006615,-0.00068723,-0.00034205,-0.00016677,0.00008199,0.00000014
 ,0.00003800,-0.00020401,0.01433690,0.02377263,-0.01946090,0.00033691,0
 .00077496,-0.00023091,-0.09755393,-0.07111668,0.10271071\\-0.00001191,
 0.00001412,-0.00000507,0.00001201,-0.00001292,0.00000978,-0.00002756,0
 .00004516,-0.00005429,-0.00002250,-0.00004318,-0.00005684,0.00000541,0
 .00001316,0.00001162,-0.00000366,-0.00001480,-0.00000744,0.00001045,0.
 00000262,-0.00000782,-0.00000493,-0.00000293,0.00000011,-0.00000464,0.
 00000444,0.00000061,0.00000711,-0.00000412,-0.00000717,0.00002982,-0.0
 0000065,0.00008081,0.00000510,0.00002126,0.00001802,0.00000531,-0.0000
 2216,0.00001767\\\@


 DO YOU KNOW THAT THE LETTERS IN "EPISCOPAL", WHEN
 REARRANGED, SPELL "PEPSI COLA"?
 Job cpu time:       0 days  0 hours  3 minutes 27.5 seconds.
 File lengths (MBytes):  RWF=     30 Int=      0 D2E=      0 Chk=      2 Scr=      1
 Normal termination of Gaussian 09 at Fri Oct  5 10:19:06 2018.
