 Entering Gaussian System, Link 0=/home/eliot/software/g09E01/g09
 Initial command:
 /home/eliot/software/g09E01/l1.exe "/tmp/Gau-12013.inp" -scrdir="/tmp/"
 Entering Link 1 = /home/eliot/software/g09E01/l1.exe PID=     12015.
  
 Copyright (c) 1988,1990,1992,1993,1995,1998,2003,2009,2015,
            Gaussian, Inc.  All Rights Reserved.
  
 This is part of the Gaussian(R) 09 program.  It is based on
 the Gaussian(R) 03 system (copyright 2003, Gaussian, Inc.),
 the Gaussian(R) 98 system (copyright 1998, Gaussian, Inc.),
 the Gaussian(R) 94 system (copyright 1995, Gaussian, Inc.),
 the Gaussian 92(TM) system (copyright 1992, Gaussian, Inc.),
 the Gaussian 90(TM) system (copyright 1990, Gaussian, Inc.),
 the Gaussian 88(TM) system (copyright 1988, Gaussian, Inc.),
 the Gaussian 86(TM) system (copyright 1986, Carnegie Mellon
 University), and the Gaussian 82(TM) system (copyright 1983,
 Carnegie Mellon University). Gaussian is a federally registered
 trademark of Gaussian, Inc.
  
 This software contains proprietary and confidential information,
 including trade secrets, belonging to Gaussian, Inc.
  
 This software is provided under written license and may be
 used, copied, transmitted, or stored only in accord with that
 written license.
  
 The following legend is applicable only to US Government
 contracts under FAR:
  
                    RESTRICTED RIGHTS LEGEND
  
 Use, reproduction and disclosure by the US Government is
 subject to restrictions as set forth in subparagraphs (a)
 and (c) of the Commercial Computer Software - Restricted
 Rights clause in FAR 52.227-19.
  
 Gaussian, Inc.
 340 Quinnipiac St., Bldg. 40, Wallingford CT 06492
  
  
 ---------------------------------------------------------------
 Warning -- This program may not be used in any manner that
 competes with the business of Gaussian, Inc. or will provide
 assistance to any competitor of Gaussian, Inc.  The licensee
 of this program is prohibited from giving any competitor of
 Gaussian, Inc. access to this program.  By using this program,
 the user acknowledges that Gaussian, Inc. is engaged in the
 business of creating and licensing software in the field of
 computational chemistry and represents and warrants to the
 licensee that it is not a competitor of Gaussian, Inc. and that
 it will not use this program in any manner prohibited above.
 ---------------------------------------------------------------
  

 Cite this work as:
 Gaussian 09, Revision E.01,
 M. J. Frisch, G. W. Trucks, H. B. Schlegel, G. E. Scuseria, 
 M. A. Robb, J. R. Cheeseman, G. Scalmani, V. Barone, B. Mennucci, 
 G. A. Petersson, H. Nakatsuji, M. Caricato, X. Li, H. P. Hratchian, 
 A. F. Izmaylov, J. Bloino, G. Zheng, J. L. Sonnenberg, M. Hada, 
 M. Ehara, K. Toyota, R. Fukuda, J. Hasegawa, M. Ishida, T. Nakajima, 
 Y. Honda, O. Kitao, H. Nakai, T. Vreven, J. A. Montgomery, Jr., 
 J. E. Peralta, F. Ogliaro, M. Bearpark, J. J. Heyd, E. Brothers, 
 K. N. Kudin, V. N. Staroverov, T. Keith, R. Kobayashi, J. Normand, 
 K. Raghavachari, A. Rendell, J. C. Burant, S. S. Iyengar, J. Tomasi, 
 M. Cossi, N. Rega, J. M. Millam, M. Klene, J. E. Knox, J. B. Cross, 
 V. Bakken, C. Adamo, J. Jaramillo, R. Gomperts, R. E. Stratmann, 
 O. Yazyev, A. J. Austin, R. Cammi, C. Pomelli, J. W. Ochterski, 
 R. L. Martin, K. Morokuma, V. G. Zakrzewski, G. A. Voth, 
 P. Salvador, J. J. Dannenberg, S. Dapprich, A. D. Daniels, 
 O. Farkas, J. B. Foresman, J. V. Ortiz, J. Cioslowski, 
 and D. J. Fox, Gaussian, Inc., Wallingford CT, 2013.
 
 ******************************************
 Gaussian 09:  ES64L-G09RevE.01 30-Nov-2015
                 2-Oct-2018 
 ******************************************
 %nproc=4
 Will use up to    4 processors via shared memory.
 ----------------
 # freq b3lyp/svp
 ----------------
 1/10=4,30=1,38=1/1,3;
 2/12=2,17=6,18=5,40=1/2;
 3/5=18,7=101,11=2,16=1,25=1,30=1,71=2,74=-5,140=1/1,2,3;
 4//1;
 5/5=2,38=5,98=1/2;
 8/6=4,10=90,11=11/1;
 11/6=1,8=1,9=11,15=111,16=1/1,2,10;
 10/6=1/2;
 6/7=2,8=2,9=2,10=2,18=1,28=1/1;
 7/8=1,10=1,25=1/1,2,3,16;
 1/10=4,30=1/3;
 99//99;
 ------
 ts.log
 ------
 Symbolic Z-matrix:
 Charge =  0 Multiplicity = 1
 C                     1.41399  -0.70371   0.16313 
 C                     0.306    -1.45066  -0.24152 
 C                    -0.99007  -0.9199   -0.23037 
 C                    -0.99006   0.91991  -0.23036 
 C                     0.30602   1.45066  -0.24152 
 C                     1.41401   0.70369   0.16313 
 H                     2.37589  -1.21217   0.27758 
 H                     0.45104  -2.44555  -0.6733 
 H                     0.45109   2.44554  -0.67331 
 H                     2.37592   1.21213   0.27757 
 O                    -1.3443    0.00001   0.74631 
 H                    -1.82945   1.41209  -0.73696 
 H                    -1.82947  -1.41207  -0.73696 
 

 GradGradGradGradGradGradGradGradGradGradGradGradGradGradGradGradGradGrad
 Berny optimization.
 Initialization pass.
 Trust Radius=3.00D-01 FncErr=1.00D-07 GrdErr=1.00D-07
 Number of steps in this run=      2 maximum allowed number of steps=      2.
 GradGradGradGradGradGradGradGradGradGradGradGradGradGradGradGradGradGrad

                          Input orientation:                          
 ---------------------------------------------------------------------
 Center     Atomic      Atomic             Coordinates (Angstroms)
 Number     Number       Type             X           Y           Z
 ---------------------------------------------------------------------
      1          6           0        1.413990   -0.703710    0.163130
      2          6           0        0.306000   -1.450660   -0.241520
      3          6           0       -0.990070   -0.919900   -0.230370
      4          6           0       -0.990060    0.919910   -0.230360
      5          6           0        0.306020    1.450660   -0.241520
      6          6           0        1.414010    0.703690    0.163130
      7          1           0        2.375890   -1.212170    0.277580
      8          1           0        0.451040   -2.445550   -0.673300
      9          1           0        0.451090    2.445540   -0.673310
     10          1           0        2.375920    1.212130    0.277570
     11          8           0       -1.344300    0.000010    0.746310
     12          1           0       -1.829450    1.412090   -0.736960
     13          1           0       -1.829470   -1.412070   -0.736960
 ---------------------------------------------------------------------
                    Distance matrix (angstroms):
                    1          2          3          4          5
     1  C    0.000000
     2  C    1.396180   0.000000
     3  C    2.445626   1.400581   0.000000
     4  C    2.927530   2.701758   1.839810   0.000000
     5  C    2.456145   2.901320   2.701764   1.400587   0.000000
     6  C    1.407400   2.456146   2.927539   2.445637   1.396190
     7  H    1.094021   2.147274   3.416595   4.016639   3.412402
     8  H    2.158910   1.094201   2.144899   3.687721   3.922744
     9  H    3.397732   3.922737   3.687726   2.144916   1.094200
    10  H    2.146823   3.412400   4.016646   3.416607   2.147286
    11  O    2.905767   2.409096   1.387666   1.387655   2.409097
    12  H    3.975761   3.605682   2.529698   1.097023   2.192528
    13  H    3.439763   2.192529   1.097022   2.529700   3.605690
                    6          7          8          9         10
     6  C    0.000000
     7  H    2.146819   0.000000
     8  H    3.397740   2.475974   0.000000
     9  H    2.158909   4.241213   4.891090   0.000000
    10  H    1.094019   2.424300   4.241219   2.475973   0.000000
    11  O    2.905777   3.940673   3.349523   3.349532   3.940684
    12  H    3.439771   5.059735   4.481749   2.504582   4.330634
    13  H    3.975772   4.330624   2.504568   4.481759   5.059743
                   11         12         13
    11  O    0.000000
    12  H    2.104621   0.000000
    13  H    2.104626   2.824160   0.000000
 Stoichiometry    C6H6O
 Framework group  C1[X(C6H6O)]
 Deg. of freedom    33
 Full point group                 C1      NOp   1
 Largest Abelian subgroup         C1      NOp   1
 Largest concise Abelian subgroup C1      NOp   1
                         Standard orientation:                         
 ---------------------------------------------------------------------
 Center     Atomic      Atomic             Coordinates (Angstroms)
 Number     Number       Type             X           Y           Z
 ---------------------------------------------------------------------
      1          6           0       -1.413989    0.703714    0.163129
      2          6           0       -0.305997    1.450661   -0.241521
      3          6           0        0.990072    0.919897   -0.230371
      4          6           0        0.990057   -0.919913   -0.230361
      5          6           0       -0.306025   -1.450659   -0.241521
      6          6           0       -1.414013   -0.703686    0.163129
      7          1           0       -2.375887    1.212177    0.277579
      8          1           0       -0.451034    2.445551   -0.673301
      9          1           0       -0.451098   -2.445539   -0.673311
     10          1           0       -2.375924   -1.212123    0.277569
     11          8           0        1.344299   -0.000014    0.746309
     12          1           0        1.829445   -1.412096   -0.736961
     13          1           0        1.829473    1.412064   -0.736961
 ---------------------------------------------------------------------
 Rotational constants (GHZ):      4.3580897      3.7300650      2.2663139
 Standard basis: SVP (5D, 7F)
 There are   135 symmetry adapted cartesian basis functions of A   symmetry.
 There are   128 symmetry adapted basis functions of A   symmetry.
   128 basis functions,   217 primitive gaussians,   135 cartesian basis functions
    25 alpha electrons       25 beta electrons
       nuclear repulsion energy       279.6735677595 Hartrees.
 NAtoms=   13 NActive=   13 NUniq=   13 SFac= 1.00D+00 NAtFMM=   60 NAOKFM=F Big=F
 Integral buffers will be    131072 words long.
 Raffenetti 2 integral format.
 Two-electron integral symmetry is turned on.
 One-electron integrals computed using PRISM.
 NBasis=   128 RedAO= T EigKep=  5.18D-04  NBF=   128
 NBsUse=   128 1.00D-06 EigRej= -1.00D+00 NBFU=   128
 ExpMin= 1.22D-01 ExpMax= 2.27D+03 ExpMxC= 3.41D+02 IAcc=1 IRadAn=         1 AccDes= 0.00D+00
 Harris functional with IExCor=  402 and IRadAn=       1 diagonalized for initial guess.
 HarFok:  IExCor=  402 AccDes= 0.00D+00 IRadAn=         1 IDoV= 1 UseB2=F ITyADJ=14
 ICtDFT=  3500011 ScaDFX=  1.000000  1.000000  1.000000  1.000000
 FoFCou: FMM=F IPFlag=           0 FMFlag=      100000 FMFlg1=           0
         NFxFlg=           0 DoJE=T BraDBF=F KetDBF=T FulRan=T
         wScrn=  0.000000 ICntrl=     500 IOpCl=  0 I1Cent=   200000004 NGrid=           0
         NMat0=    1 NMatS0=      1 NMatT0=    0 NMatD0=    1 NMtDS0=    0 NMtDT0=    0
 Petite list used in FoFCou.
 Requested convergence on RMS density matrix=1.00D-08 within 128 cycles.
 Requested convergence on MAX density matrix=1.00D-06.
 Requested convergence on             energy=1.00D-06.
 No special actions if energy rises.
 Integral accuracy reduced to 1.0D-05 until final iterations.
 Initial convergence to 1.0D-05 achieved.  Increase integral accuracy.
 SCF Done:  E(RB3LYP) =  -307.163633733     A.U. after   14 cycles
            NFock= 14  Conv=0.59D-08     -V/T= 2.0103
 DoSCS=F DFT=T ScalE2(SS,OS)=  1.000000  1.000000
 Range of M.O.s used for correlation:     1   128
 NBasis=   128 NAE=    25 NBE=    25 NFC=     0 NFV=     0
 NROrb=    128 NOA=    25 NOB=    25 NVA=   103 NVB=   103
 Symmetrizing basis deriv contribution to polar:
 IMax=3 JMax=2 DiffMx= 0.00D+00
 G2DrvN: will do    14 centers at a time, making    1 passes.
 Calling FoFCou, ICntrl=  3107 FMM=F I1Cent=   0 AccDes= 0.00D+00.
 End of G2Drv F.D. properties file   721 does not exist.
 End of G2Drv F.D. properties file   722 does not exist.
 End of G2Drv F.D. properties file   788 does not exist.
          IDoAtm=1111111111111
          Differentiating once with respect to electric field.
                with respect to dipole field.
          Differentiating once with respect to nuclear coordinates.
          There are    42 degrees of freedom in the 1st order CPHF.  IDoFFX=6 NUNeed=     3.
     39 vectors produced by pass  0 Test12= 6.13D-15 2.38D-09 XBig12= 1.10D+02 6.68D+00.
 AX will form    39 AO Fock derivatives at one time.
     39 vectors produced by pass  1 Test12= 6.13D-15 2.38D-09 XBig12= 2.41D+01 1.37D+00.
     39 vectors produced by pass  2 Test12= 6.13D-15 2.38D-09 XBig12= 2.48D-01 8.79D-02.
     39 vectors produced by pass  3 Test12= 6.13D-15 2.38D-09 XBig12= 7.94D-04 5.67D-03.
     39 vectors produced by pass  4 Test12= 6.13D-15 2.38D-09 XBig12= 1.65D-06 2.37D-04.
     28 vectors produced by pass  5 Test12= 6.13D-15 2.38D-09 XBig12= 2.39D-09 8.74D-06.
      4 vectors produced by pass  6 Test12= 6.13D-15 2.38D-09 XBig12= 2.56D-12 2.32D-07.
      2 vectors produced by pass  7 Test12= 6.13D-15 2.38D-09 XBig12= 2.12D-15 6.53D-09.
 InvSVY:  IOpt=1 It=  1 EMax= 1.42D-14
 Solved reduced A of dimension   229 with    42 vectors.
 Isotropic polarizability for W=    0.000000       63.95 Bohr**3.
 End of Minotr F.D. properties file   721 does not exist.
 End of Minotr F.D. properties file   722 does not exist.
 End of Minotr F.D. properties file   788 does not exist.

 **********************************************************************

            Population analysis using the SCF density.

 **********************************************************************

 Orbital symmetries:
       Occupied  (A) (A) (A) (A) (A) (A) (A) (A) (A) (A) (A) (A)
                 (A) (A) (A) (A) (A) (A) (A) (A) (A) (A) (A) (A)
                 (A)
       Virtual   (A) (A) (A) (A) (A) (A) (A) (A) (A) (A) (A) (A)
                 (A) (A) (A) (A) (A) (A) (A) (A) (A) (A) (A) (A)
                 (A) (A) (A) (A) (A) (A) (A) (A) (A) (A) (A) (A)
                 (A) (A) (A) (A) (A) (A) (A) (A) (A) (A) (A) (A)
                 (A) (A) (A) (A) (A) (A) (A) (A) (A) (A) (A) (A)
                 (A) (A) (A) (A) (A) (A) (A) (A) (A) (A) (A) (A)
                 (A) (A) (A) (A) (A) (A) (A) (A) (A) (A) (A) (A)
                 (A) (A) (A) (A) (A) (A) (A) (A) (A) (A) (A) (A)
                 (A) (A) (A) (A) (A) (A) (A)
 The electronic state is 1-A.
 Alpha  occ. eigenvalues --  -19.15877 -10.25683 -10.25681 -10.19645 -10.19613
 Alpha  occ. eigenvalues --  -10.19379 -10.19374  -1.08446  -0.81710  -0.76549
 Alpha  occ. eigenvalues --   -0.68758  -0.64191  -0.57014  -0.53378  -0.52463
 Alpha  occ. eigenvalues --   -0.47305  -0.46095  -0.45200  -0.42313  -0.38374
 Alpha  occ. eigenvalues --   -0.36873  -0.34459  -0.28780  -0.24620  -0.24386
 Alpha virt. eigenvalues --   -0.02355  -0.01128   0.05659   0.08661   0.09374
 Alpha virt. eigenvalues --    0.10116   0.13029   0.14111   0.15585   0.16939
 Alpha virt. eigenvalues --    0.24410   0.29402   0.29929   0.30788   0.37551
 Alpha virt. eigenvalues --    0.40777   0.40832   0.43999   0.44150   0.45049
 Alpha virt. eigenvalues --    0.45173   0.48620   0.49289   0.50093   0.53060
 Alpha virt. eigenvalues --    0.55560   0.57507   0.59831   0.60400   0.62688
 Alpha virt. eigenvalues --    0.63208   0.64614   0.66902   0.68318   0.70888
 Alpha virt. eigenvalues --    0.71415   0.72374   0.74534   0.75379   0.75739
 Alpha virt. eigenvalues --    0.83675   0.86698   0.94149   0.96407   1.04554
 Alpha virt. eigenvalues --    1.08776   1.14768   1.21782   1.27843   1.28984
 Alpha virt. eigenvalues --    1.30378   1.32677   1.33431   1.42501   1.43732
 Alpha virt. eigenvalues --    1.46045   1.63714   1.68854   1.69345   1.70736
 Alpha virt. eigenvalues --    1.71378   1.72436   1.74066   1.74810   1.77858
 Alpha virt. eigenvalues --    1.78906   1.81787   1.86828   1.88155   1.91959
 Alpha virt. eigenvalues --    1.93487   1.96601   1.99280   2.00390   2.02355
 Alpha virt. eigenvalues --    2.04128   2.07757   2.15460   2.16764   2.20244
 Alpha virt. eigenvalues --    2.23587   2.34543   2.34673   2.39061   2.39281
 Alpha virt. eigenvalues --    2.46068   2.55028   2.55037   2.64886   2.65461
 Alpha virt. eigenvalues --    2.72051   2.73467   2.78736   2.85192   2.91686
 Alpha virt. eigenvalues --    2.94208   3.00242   3.04653   3.14968   3.23498
 Alpha virt. eigenvalues --    3.33042   3.43106   3.58292
          Condensed to atoms (all electrons):
               1          2          3          4          5          6
     1  C    4.911157   0.376016   0.027512  -0.063744  -0.001350   0.420155
     2  C    0.376016   5.025266   0.378372  -0.006454  -0.039139  -0.001351
     3  C    0.027512   0.378372   4.888985   0.041077  -0.006454  -0.063743
     4  C   -0.063744  -0.006454   0.041077   4.888981   0.378369   0.027512
     5  C   -0.001350  -0.039139  -0.006454   0.378369   5.025276   0.376019
     6  C    0.420155  -0.001351  -0.063743   0.027512   0.376019   4.911153
     7  H    0.415588  -0.059697   0.012416  -0.000804   0.013742  -0.057961
     8  H   -0.053469   0.415319  -0.057400   0.004415  -0.001964   0.011969
     9  H    0.011969  -0.001963   0.004414  -0.057400   0.415316  -0.053467
    10  H   -0.057961   0.013742  -0.000804   0.012415  -0.059697   0.415589
    11  O    0.002115  -0.061726   0.271947   0.271952  -0.061727   0.002115
    12  H    0.001041  -0.003051   0.002154   0.398217  -0.059675   0.010092
    13  H    0.010092  -0.059674   0.398217   0.002153  -0.003051   0.001041
               7          8          9         10         11         12
     1  C    0.415588  -0.053469   0.011969  -0.057961   0.002115   0.001041
     2  C   -0.059697   0.415319  -0.001963   0.013742  -0.061726  -0.003051
     3  C    0.012416  -0.057400   0.004414  -0.000804   0.271947   0.002154
     4  C   -0.000804   0.004415  -0.057400   0.012415   0.271952   0.398217
     5  C    0.013742  -0.001964   0.415316  -0.059697  -0.061727  -0.059675
     6  C   -0.057961   0.011969  -0.053467   0.415589   0.002115   0.010092
     7  H    0.712011  -0.012649  -0.000300  -0.015786  -0.000114   0.000016
     8  H   -0.012649   0.700448   0.000044  -0.000300   0.003527   0.000090
     9  H   -0.000300   0.000044   0.700447  -0.012649   0.003527  -0.007146
    10  H   -0.015786  -0.000300  -0.012649   0.712009  -0.000114  -0.000371
    11  O   -0.000114   0.003527   0.003527  -0.000114   7.919719  -0.038564
    12  H    0.000016   0.000090  -0.007146  -0.000371  -0.038564   0.679573
    13  H   -0.000371  -0.007147   0.000090   0.000016  -0.038564   0.000133
              13
     1  C    0.010092
     2  C   -0.059674
     3  C    0.398217
     4  C    0.002153
     5  C   -0.003051
     6  C    0.001041
     7  H   -0.000371
     8  H   -0.007147
     9  H    0.000090
    10  H    0.000016
    11  O   -0.038564
    12  H    0.000133
    13  H    0.679570
 Mulliken charges:
               1
     1  C    0.000878
     2  C    0.024340
     3  C    0.103308
     4  C    0.103311
     5  C    0.024335
     6  C    0.000877
     7  H   -0.006089
     8  H   -0.002883
     9  H   -0.002883
    10  H   -0.006088
    11  O   -0.274092
    12  H    0.017493
    13  H    0.017494
 Sum of Mulliken charges =   0.00000
 Mulliken charges with hydrogens summed into heavy atoms:
               1
     1  C   -0.005211
     2  C    0.021457
     3  C    0.120801
     4  C    0.120804
     5  C    0.021452
     6  C   -0.005211
    11  O   -0.274092
 APT charges:
               1
     1  C   -0.018347
     2  C   -0.101022
     3  C    0.273497
     4  C    0.273506
     5  C   -0.101029
     6  C   -0.018342
     7  H    0.029210
     8  H    0.042173
     9  H    0.042174
    10  H    0.029213
    11  O   -0.480413
    12  H    0.014688
    13  H    0.014692
 Sum of APT charges =   0.00000
 APT charges with hydrogens summed into heavy atoms:
               1
     1  C    0.010864
     2  C   -0.058849
     3  C    0.288188
     4  C    0.288194
     5  C   -0.058855
     6  C    0.010871
    11  O   -0.480413
 Electronic spatial extent (au):  <R**2>=            582.0685
 Charge=              0.0000 electrons
 Dipole moment (field-independent basis, Debye):
    X=             -0.3569    Y=              0.0000    Z=             -1.6159  Tot=              1.6548
 Quadrupole moment (field-independent basis, Debye-Ang):
   XX=            -38.1198   YY=            -36.6992   ZZ=            -44.1656
   XY=              0.0001   XZ=             -2.8424   YZ=              0.0000
 Traceless Quadrupole moment (field-independent basis, Debye-Ang):
   XX=              1.5418   YY=              2.9623   ZZ=             -4.5041
   XY=              0.0001   XZ=             -2.8424   YZ=              0.0000
 Octapole moment (field-independent basis, Debye-Ang**2):
  XXX=              1.8515  YYY=              0.0002  ZZZ=              2.6604  XYY=              2.0256
  XXY=              0.0000  XXZ=             -1.8550  XZZ=              2.7318  YZZ=              0.0000
  YYZ=             -4.1107  XYZ=             -0.0001
 Hexadecapole moment (field-independent basis, Debye-Ang**3):
 XXXX=           -348.1208 YYYY=           -318.5179 ZZZZ=            -82.7697 XXXY=              0.0005
 XXXZ=             -7.9097 YYYX=              0.0001 YYYZ=              0.0001 ZZZX=              3.6999
 ZZZY=              0.0000 XXYY=           -106.5482 XXZZ=            -78.5612 YYZZ=            -68.9936
 XXYZ=              0.0001 YYXZ=              0.1702 ZZXY=              0.0000
 N-N= 2.796735677595D+02 E-N=-1.273000728076D+03  KE= 3.040250321771D+02
  Exact polarizability:  76.433   0.000  79.862  -7.253   0.000  35.565
 Approx polarizability: 129.579   0.000 139.441 -11.774   0.000  56.125
 Calling FoFJK, ICntrl=    100127 FMM=F ISym2X=0 I1Cent= 0 IOpClX= 0 NMat=1 NMatS=1 NMatT=0.
 Full mass-weighted force constant matrix:
 Low frequencies --- -486.6534  -20.1535  -18.2531   -9.4883   -0.0009   -0.0008
 Low frequencies ---   -0.0005  303.9777  334.9474
 ******    1 imaginary frequencies (negative Signs) ****** 
 Diagonal vibrational polarizability:
        2.4379236       1.9383842       4.9794871
 Harmonic frequencies (cm**-1), IR intensities (KM/Mole), Raman scattering
 activities (A**4/AMU), depolarization ratios for plane and unpolarized
 incident light, reduced masses (AMU), force constants (mDyne/A),
 and normal coordinates:
                      1                      2                      3
                      A                      A                      A
 Frequencies --   -486.6532               303.9777               334.9467
 Red. masses --      6.0674                 5.1628                 3.0284
 Frc consts  --      0.8466                 0.2811                 0.2002
 IR Inten    --      0.2891                 2.4641                 0.7317
  Atom  AN      X      Y      Z        X      Y      Z        X      Y      Z
     1   6     0.01   0.06  -0.03    -0.17   0.00  -0.15     0.03   0.01   0.18
     2   6    -0.05  -0.04   0.05    -0.04  -0.01   0.19    -0.01   0.02   0.07
     3   6    -0.01  -0.40  -0.17     0.00   0.03   0.05    -0.05  -0.09  -0.19
     4   6    -0.01   0.40  -0.17     0.00  -0.03   0.05     0.05  -0.09   0.19
     5   6    -0.05   0.04   0.05    -0.04   0.01   0.19     0.01   0.02  -0.07
     6   6     0.01  -0.06  -0.03    -0.17   0.00  -0.15    -0.03   0.01  -0.18
     7   1    -0.01   0.03  -0.09    -0.18   0.03  -0.41     0.06   0.03   0.39
     8   1     0.10   0.12   0.36     0.01   0.04   0.29    -0.06   0.05   0.15
     9   1     0.10  -0.12   0.36     0.01  -0.04   0.29     0.06   0.05  -0.15
    10   1    -0.01  -0.03  -0.09    -0.18  -0.03  -0.41    -0.06   0.03  -0.39
    11   8     0.05   0.00   0.21     0.36   0.00  -0.11     0.00   0.11   0.00
    12   1    -0.02   0.32  -0.12    -0.15  -0.13  -0.11     0.09  -0.24   0.40
    13   1    -0.02  -0.32  -0.12    -0.15   0.13  -0.11    -0.09  -0.24  -0.40
                      4                      5                      6
                      A                      A                      A
 Frequencies --    464.6275               493.1067               645.8232
 Red. masses --      3.3685                 5.8428                 3.5653
 Frc consts  --      0.4284                 0.8371                 0.8761
 IR Inten    --      6.2250                 1.8361                 2.7000
  Atom  AN      X      Y      Z        X      Y      Z        X      Y      Z
     1   6    -0.09  -0.01   0.08     0.21  -0.18   0.08     0.01  -0.08  -0.23
     2   6    -0.03  -0.19  -0.16     0.15  -0.11  -0.04     0.06   0.07   0.18
     3   6     0.01  -0.04   0.07     0.24   0.17  -0.03     0.04  -0.03  -0.11
     4   6     0.01   0.04   0.07    -0.24   0.17   0.03    -0.04  -0.03   0.11
     5   6    -0.03   0.19  -0.16    -0.15  -0.11   0.04    -0.06   0.07  -0.18
     6   6    -0.09   0.01   0.08    -0.21  -0.18  -0.08    -0.01  -0.08   0.23
     7   1    -0.05   0.06   0.05     0.31   0.00   0.18    -0.01  -0.09  -0.37
     8   1    -0.02  -0.35  -0.51    -0.09  -0.09   0.08     0.03   0.16   0.39
     9   1    -0.02   0.35  -0.51     0.09  -0.09  -0.08    -0.03   0.16  -0.39
    10   1    -0.05  -0.06   0.05    -0.31   0.00  -0.18     0.01  -0.09   0.37
    11   8     0.17   0.00   0.08     0.00   0.15   0.00     0.00   0.08   0.00
    12   1    -0.05   0.05  -0.04    -0.27   0.23  -0.08    -0.04  -0.12   0.20
    13   1    -0.05  -0.05  -0.04     0.27   0.23   0.08     0.04  -0.12  -0.20
                      7                      8                      9
                      A                      A                      A
 Frequencies --    710.0152               744.0699               790.8700
 Red. masses --      1.3050                 2.9293                 1.2548
 Frc consts  --      0.3876                 0.9555                 0.4624
 IR Inten    --     62.5413                12.2757                17.6207
  Atom  AN      X      Y      Z        X      Y      Z        X      Y      Z
     1   6    -0.05   0.00  -0.02     0.06   0.01  -0.06    -0.01   0.01  -0.03
     2   6    -0.01  -0.08  -0.04    -0.07   0.15  -0.11    -0.02  -0.02  -0.08
     3   6     0.05   0.01  -0.02    -0.10   0.00   0.08    -0.02  -0.02  -0.05
     4   6     0.05  -0.01  -0.02    -0.10   0.00   0.08     0.02  -0.02   0.05
     5   6    -0.01   0.08  -0.04    -0.07  -0.15  -0.11     0.02  -0.02   0.08
     6   6    -0.05   0.00  -0.02     0.06  -0.01  -0.06     0.01   0.01   0.03
     7   1     0.05   0.10   0.34     0.08  -0.09   0.55     0.04   0.04   0.22
     8   1     0.06   0.13   0.40     0.03   0.25   0.07     0.09   0.24   0.50
     9   1     0.06  -0.13   0.40     0.03  -0.25   0.07    -0.09   0.24  -0.50
    10   1     0.05  -0.10   0.34     0.08   0.09   0.55    -0.04   0.04  -0.22
    11   8    -0.01   0.00  -0.01     0.17   0.00   0.07     0.00  -0.01   0.00
    12   1     0.08  -0.28   0.29    -0.12   0.11  -0.06    -0.04   0.21  -0.27
    13   1     0.08   0.28   0.29    -0.12  -0.11  -0.06     0.04   0.21   0.27
                     10                     11                     12
                      A                      A                      A
 Frequencies --    847.9458               882.7510               931.6537
 Red. masses --      1.3625                 2.2591                 1.3734
 Frc consts  --      0.5772                 1.0372                 0.7024
 IR Inten    --     15.2437                 0.5219                 3.7153
  Atom  AN      X      Y      Z        X      Y      Z        X      Y      Z
     1   6     0.06   0.01   0.05     0.09  -0.08  -0.03     0.03   0.00   0.05
     2   6    -0.05   0.04  -0.04    -0.03   0.13  -0.10    -0.03  -0.05  -0.08
     3   6    -0.03  -0.02  -0.02    -0.03   0.05   0.06     0.01   0.04   0.04
     4   6    -0.03   0.02  -0.02     0.03   0.05  -0.06     0.01  -0.04   0.04
     5   6    -0.05  -0.04  -0.04     0.03   0.13   0.10    -0.03   0.05  -0.08
     6   6     0.06  -0.01   0.05    -0.09  -0.08   0.03     0.03   0.00   0.05
     7   1    -0.06  -0.12  -0.37     0.11  -0.08   0.20    -0.03  -0.03  -0.34
     8   1    -0.10   0.04  -0.02    -0.14   0.21   0.14    -0.01   0.19   0.46
     9   1    -0.10  -0.04  -0.02     0.14   0.21  -0.14    -0.01  -0.19   0.46
    10   1    -0.06   0.12  -0.37    -0.11  -0.08  -0.20    -0.03   0.03  -0.34
    11   8     0.06   0.00   0.01     0.00  -0.11   0.00     0.00   0.00   0.00
    12   1     0.00  -0.38   0.41    -0.01  -0.44   0.33    -0.02   0.23  -0.27
    13   1     0.00   0.38   0.41     0.01  -0.44  -0.33    -0.02  -0.23  -0.27
                     13                     14                     15
                      A                      A                      A
 Frequencies --    960.6959               983.9853               994.8943
 Red. masses --      2.0817                 3.9481                 4.7022
 Frc consts  --      1.1320                 2.2522                 2.7422
 IR Inten    --      0.0002                 3.7226                 6.8134
  Atom  AN      X      Y      Z        X      Y      Z        X      Y      Z
     1   6    -0.11   0.05  -0.02     0.16  -0.01   0.00     0.21  -0.16  -0.10
     2   6     0.00  -0.12  -0.01     0.04  -0.04  -0.01     0.01  -0.20   0.07
     3   6     0.07   0.05   0.09    -0.15  -0.12   0.18    -0.17  -0.06   0.07
     4   6    -0.07   0.05  -0.09     0.15  -0.12  -0.18    -0.17   0.06   0.07
     5   6     0.00  -0.12   0.01    -0.04  -0.04   0.01     0.01   0.20   0.07
     6   6     0.11   0.05   0.02    -0.16  -0.01   0.00     0.21   0.16  -0.10
     7   1    -0.09   0.05   0.15     0.25   0.21  -0.20     0.22  -0.23   0.11
     8   1     0.16   0.03   0.30     0.28   0.04   0.14    -0.05  -0.20   0.14
     9   1    -0.16   0.03  -0.30    -0.28   0.04  -0.14    -0.05   0.20   0.14
    10   1     0.09   0.05  -0.15    -0.25   0.21   0.20     0.22   0.23   0.11
    11   8     0.00   0.06   0.00     0.00   0.22   0.00    -0.03   0.00  -0.09
    12   1     0.06  -0.28   0.47     0.35   0.03   0.02    -0.36  -0.16   0.00
    13   1    -0.06  -0.28  -0.47    -0.35   0.03  -0.02    -0.36   0.16   0.00
                     16                     17                     18
                      A                      A                      A
 Frequencies --    996.2583              1063.3092              1117.3962
 Red. masses --      1.2983                 1.6877                 1.6583
 Frc consts  --      0.7592                 1.1243                 1.2199
 IR Inten    --      0.3590                11.3757                14.8964
  Atom  AN      X      Y      Z        X      Y      Z        X      Y      Z
     1   6    -0.02  -0.01  -0.10    -0.03   0.07   0.04     0.05   0.04  -0.04
     2   6     0.02   0.01   0.04     0.07   0.01  -0.02    -0.03  -0.08   0.03
     3   6    -0.01  -0.02   0.02    -0.07  -0.06   0.06    -0.05   0.07  -0.04
     4   6     0.01  -0.02  -0.02    -0.07   0.06   0.06     0.05   0.07   0.04
     5   6    -0.02   0.01  -0.04     0.07  -0.01  -0.02     0.03  -0.08  -0.03
     6   6     0.02  -0.01   0.10    -0.03  -0.07   0.04    -0.05   0.04   0.04
     7   1     0.11   0.07   0.62     0.00   0.15  -0.09     0.27   0.44  -0.06
     8   1     0.04  -0.11  -0.26     0.64   0.09  -0.02    -0.35  -0.12   0.07
     9   1    -0.04  -0.11   0.26     0.64  -0.09  -0.02     0.35  -0.12  -0.07
    10   1    -0.11   0.07  -0.62     0.00  -0.15  -0.09    -0.27   0.44   0.06
    11   8     0.00   0.03   0.00    -0.02   0.00  -0.10     0.00  -0.09   0.00
    12   1     0.02   0.05  -0.05    -0.11  -0.04   0.09     0.16   0.11   0.15
    13   1    -0.02   0.05   0.05    -0.11   0.04   0.09    -0.16   0.11  -0.15
                     19                     20                     21
                      A                      A                      A
 Frequencies --   1193.6948              1208.3902              1243.2112
 Red. masses --      1.1134                 1.3851                 1.6826
 Frc consts  --      0.9347                 1.1916                 1.5322
 IR Inten    --      2.0231                 4.4609                22.0930
  Atom  AN      X      Y      Z        X      Y      Z        X      Y      Z
     1   6     0.02   0.05  -0.01     0.01  -0.03   0.00     0.00   0.00   0.00
     2   6     0.00   0.00   0.00     0.03  -0.01   0.00     0.02  -0.01   0.01
     3   6    -0.03   0.01   0.00    -0.05   0.08  -0.05    -0.02   0.08  -0.08
     4   6    -0.03  -0.01   0.00     0.05   0.08   0.05    -0.02  -0.08  -0.08
     5   6     0.00   0.00   0.00    -0.03  -0.01   0.00     0.02   0.01   0.01
     6   6     0.02  -0.05  -0.01    -0.01  -0.03   0.00     0.00   0.00   0.00
     7   1     0.30   0.59  -0.08    -0.02  -0.09   0.00    -0.03  -0.05  -0.01
     8   1    -0.21  -0.03   0.00     0.57   0.03  -0.09     0.30   0.02  -0.01
     9   1    -0.21   0.03   0.00    -0.57   0.03   0.09     0.30  -0.02  -0.01
    10   1     0.30  -0.59  -0.08     0.02  -0.09   0.00    -0.03   0.05  -0.01
    11   8     0.01   0.00   0.02     0.00  -0.08   0.00     0.00   0.00   0.15
    12   1    -0.08  -0.06  -0.03     0.24   0.22   0.20    -0.34  -0.39  -0.33
    13   1    -0.08   0.06  -0.03    -0.24   0.22  -0.20    -0.34   0.39  -0.33
                     22                     23                     24
                      A                      A                      A
 Frequencies --   1344.8255              1416.4042              1467.3657
 Red. masses --      1.1964                 1.8882                 1.9836
 Frc consts  --      1.2749                 2.2319                 2.5164
 IR Inten    --      1.9533                 5.2201                 0.0369
  Atom  AN      X      Y      Z        X      Y      Z        X      Y      Z
     1   6     0.02   0.03  -0.01     0.00  -0.10   0.01    -0.07  -0.09   0.03
     2   6     0.04   0.02  -0.02     0.00  -0.02   0.02    -0.07   0.08  -0.02
     3   6     0.04  -0.05   0.02    -0.09   0.08  -0.09     0.11  -0.07   0.02
     4   6    -0.04  -0.05  -0.02    -0.09  -0.08  -0.09    -0.11  -0.07  -0.02
     5   6    -0.04   0.02   0.02     0.00   0.02   0.02     0.07   0.08   0.02
     6   6    -0.02   0.03   0.01     0.00   0.10   0.01     0.07  -0.09  -0.03
     7   1    -0.14  -0.29   0.06     0.13   0.14  -0.08     0.21   0.50  -0.10
     8   1    -0.29   0.00   0.05     0.30   0.01  -0.01     0.11   0.11  -0.07
     9   1     0.29   0.00  -0.05     0.30  -0.01  -0.01    -0.11   0.11   0.07
    10   1     0.14  -0.29  -0.06     0.13  -0.14  -0.08    -0.21   0.50   0.10
    11   8     0.00  -0.02   0.00     0.05   0.00   0.07     0.00   0.00   0.00
    12   1     0.33   0.36   0.23     0.36   0.35   0.27     0.16   0.27   0.17
    13   1    -0.33   0.36  -0.23     0.36  -0.35   0.27    -0.16   0.27  -0.17
                     25                     26                     27
                      A                      A                      A
 Frequencies --   1480.9228              1573.7615              1624.6672
 Red. masses --      3.8958                 3.9001                 5.6265
 Frc consts  --      5.0340                 5.6913                 8.7502
 IR Inten    --     11.1335                 7.2964                 0.0220
  Atom  AN      X      Y      Z        X      Y      Z        X      Y      Z
     1   6    -0.12  -0.09   0.04    -0.05  -0.29   0.04    -0.22  -0.12   0.06
     2   6     0.29   0.05  -0.07    -0.06   0.11  -0.03     0.34   0.06  -0.07
     3   6    -0.12  -0.04  -0.02     0.11  -0.09   0.05    -0.15   0.04   0.00
     4   6    -0.12   0.04  -0.02     0.11   0.09   0.05     0.15   0.04   0.00
     5   6     0.29  -0.05  -0.07    -0.06  -0.11  -0.03    -0.34   0.06   0.07
     6   6    -0.12   0.09   0.04    -0.05   0.29   0.04     0.22  -0.12  -0.06
     7   1    -0.13  -0.07  -0.03     0.26   0.32  -0.13    -0.02   0.33  -0.07
     8   1    -0.51   0.06   0.23     0.19   0.15  -0.08    -0.38   0.04   0.11
     9   1    -0.51  -0.06   0.23     0.19  -0.15  -0.08     0.38   0.04  -0.11
    10   1    -0.13   0.07  -0.03     0.26  -0.32  -0.13     0.02   0.33   0.07
    11   8     0.02   0.00   0.03    -0.03   0.00  -0.04     0.00   0.00   0.00
    12   1    -0.15  -0.04   0.06    -0.18  -0.22  -0.18     0.12  -0.03  -0.07
    13   1    -0.15   0.04   0.06    -0.18   0.22  -0.18    -0.12  -0.03   0.07
                     28                     29                     30
                      A                      A                      A
 Frequencies --   3143.8264              3149.8168              3164.7316
 Red. masses --      1.0879                 1.0891                 1.0870
 Frc consts  --      6.3349                 6.3661                 6.4144
 IR Inten    --      6.2176                17.6199                 0.0685
  Atom  AN      X      Y      Z        X      Y      Z        X      Y      Z
     1   6    -0.01   0.00   0.00     0.00   0.00   0.00    -0.05   0.02   0.01
     2   6     0.00  -0.02   0.01     0.00   0.02  -0.01     0.01  -0.02   0.01
     3   6     0.05   0.02  -0.02    -0.05  -0.02   0.03    -0.01  -0.01   0.01
     4   6    -0.05   0.02   0.02    -0.05   0.02   0.03     0.01  -0.01  -0.01
     5   6     0.00  -0.02  -0.01     0.00  -0.02  -0.01    -0.01  -0.02  -0.01
     6   6     0.01   0.00   0.00     0.00   0.00   0.00     0.05   0.02  -0.01
     7   1     0.07  -0.04  -0.01    -0.04   0.02   0.00     0.53  -0.28  -0.07
     8   1    -0.03   0.19  -0.08     0.03  -0.22   0.10    -0.05   0.29  -0.12
     9   1     0.03   0.19   0.08     0.03   0.22   0.10     0.05   0.29   0.12
    10   1    -0.07  -0.04   0.01    -0.04  -0.02   0.00    -0.53  -0.28   0.07
    11   8     0.00   0.00   0.00     0.00   0.00   0.00     0.00   0.00   0.00
    12   1     0.52  -0.29  -0.31     0.51  -0.29  -0.30    -0.13   0.07   0.08
    13   1    -0.52  -0.29   0.31     0.51   0.29  -0.30     0.13   0.07  -0.08
                     31                     32                     33
                      A                      A                      A
 Frequencies --   3172.7302              3179.4551              3188.3799
 Red. masses --      1.0914                 1.0951                 1.0979
 Frc consts  --      6.4732                 6.5226                 6.5756
 IR Inten    --     14.8469                17.2579                 6.6366
  Atom  AN      X      Y      Z        X      Y      Z        X      Y      Z
     1   6     0.03  -0.02   0.00     0.03  -0.01   0.00    -0.05   0.03   0.01
     2   6    -0.01   0.04  -0.02     0.01  -0.05   0.02     0.00   0.03  -0.01
     3   6     0.02   0.01  -0.01    -0.01   0.00   0.01     0.01   0.00   0.00
     4   6     0.02  -0.01  -0.01     0.01   0.00  -0.01     0.01   0.00   0.00
     5   6    -0.01  -0.04  -0.02    -0.01  -0.05  -0.02     0.00  -0.03  -0.01
     6   6     0.03   0.02   0.00    -0.03  -0.01   0.00    -0.05  -0.03   0.01
     7   1    -0.34   0.18   0.04    -0.31   0.16   0.04     0.52  -0.27  -0.06
     8   1     0.08  -0.50   0.21    -0.08   0.54  -0.23     0.05  -0.34   0.15
     9   1     0.08   0.50   0.21     0.08   0.54   0.23     0.05   0.34   0.15
    10   1    -0.34  -0.18   0.04     0.31   0.16  -0.04     0.52   0.27  -0.06
    11   8     0.00   0.00   0.00     0.00   0.00   0.00     0.00   0.00   0.00
    12   1    -0.17   0.10   0.10    -0.11   0.06   0.06    -0.08   0.04   0.04
    13   1    -0.17  -0.10   0.10     0.11   0.06  -0.06    -0.08  -0.04   0.04

 -------------------
 - Thermochemistry -
 -------------------
 Temperature   298.150 Kelvin.  Pressure   1.00000 Atm.
 Atom     1 has atomic number  6 and mass  12.00000
 Atom     2 has atomic number  6 and mass  12.00000
 Atom     3 has atomic number  6 and mass  12.00000
 Atom     4 has atomic number  6 and mass  12.00000
 Atom     5 has atomic number  6 and mass  12.00000
 Atom     6 has atomic number  6 and mass  12.00000
 Atom     7 has atomic number  1 and mass   1.00783
 Atom     8 has atomic number  1 and mass   1.00783
 Atom     9 has atomic number  1 and mass   1.00783
 Atom    10 has atomic number  1 and mass   1.00783
 Atom    11 has atomic number  8 and mass  15.99491
 Atom    12 has atomic number  1 and mass   1.00783
 Atom    13 has atomic number  1 and mass   1.00783
 Molecular mass:    94.04186 amu.
 Principal axes and moments of inertia in atomic units:
                           1         2         3
     Eigenvalues --   414.11291 483.83639 796.33330
           X            0.99952   0.00000  -0.03112
           Y            0.00000   1.00000   0.00000
           Z            0.03112   0.00000   0.99952
 This molecule is an asymmetric top.
 Rotational symmetry number  1.
 Rotational temperatures (Kelvin)      0.20916     0.17901     0.10877
 Rotational constants (GHZ):           4.35809     3.73007     2.26631
    1 imaginary frequencies ignored.
 Zero-point vibrational energy     268074.2 (Joules/Mol)
                                   64.07128 (Kcal/Mol)
 Warning -- explicit consideration of   4 degrees of freedom as
           vibrations may cause significant error
 Vibrational temperatures:    437.36   481.91   668.49   709.47   929.19
          (Kelvin)           1021.55  1070.55  1137.88  1220.00  1270.08
                             1340.44  1382.23  1415.73  1431.43  1433.39
                             1529.86  1607.68  1717.46  1738.60  1788.70
                             1934.90  2037.89  2111.21  2130.71  2264.29
                             2337.53  4523.26  4531.88  4553.34  4564.85
                             4574.52  4587.36
 
 Zero-point correction=                           0.102104 (Hartree/Particle)
 Thermal correction to Energy=                    0.107095
 Thermal correction to Enthalpy=                  0.108039
 Thermal correction to Gibbs Free Energy=         0.073601
 Sum of electronic and zero-point Energies=           -307.061530
 Sum of electronic and thermal Energies=              -307.056539
 Sum of electronic and thermal Enthalpies=            -307.055595
 Sum of electronic and thermal Free Energies=         -307.090033
 
                     E (Thermal)             CV                S
                      KCal/Mol        Cal/Mol-Kelvin    Cal/Mol-Kelvin
 Total                   67.203             19.789             72.482
 Electronic               0.000              0.000              0.000
 Translational            0.889              2.981             39.535
 Rotational               0.889              2.981             26.570
 Vibrational             65.426             13.827              6.377
 Vibration     1          0.695              1.666              1.395
 Vibration     2          0.716              1.606              1.236
 Vibration     3          0.822              1.329              0.753
 Vibration     4          0.849              1.265              0.676
                       Q            Log10(Q)             Ln(Q)
 Total Bot       0.139993D-33        -33.853895        -77.951474
 Total V=0       0.129009D+14         13.110620         30.188319
 Vib (Bot)       0.273127D-46        -46.563635       -107.216731
 Vib (Bot)    1  0.624220D+00         -0.204662         -0.471253
 Vib (Bot)    2  0.556133D+00         -0.254821         -0.586747
 Vib (Bot)    3  0.364670D+00         -0.438100         -1.008763
 Vib (Bot)    4  0.335335D+00         -0.474521         -1.092625
 Vib (V=0)       0.251698D+01          0.400881          0.923062
 Vib (V=0)    1  0.129978D+01          0.113870          0.262196
 Vib (V=0)    2  0.124785D+01          0.096163          0.221424
 Vib (V=0)    3  0.111886D+01          0.048775          0.112308
 Vib (V=0)    4  0.110204D+01          0.042196          0.097161
 Electronic      0.100000D+01          0.000000          0.000000
 Translational   0.358457D+08          7.554437         17.394734
 Rotational      0.142989D+06          5.155303         11.870523
 ***** Axes restored to original set *****
 -------------------------------------------------------------------
 Center     Atomic                   Forces (Hartrees/Bohr)
 Number     Number              X              Y              Z
 -------------------------------------------------------------------
      1        6           0.000033149    0.000011093   -0.000007242
      2        6          -0.000003815   -0.000024687   -0.000009317
      3        6          -0.000026572    0.000024345   -0.000007562
      4        6          -0.000021821   -0.000017850   -0.000013480
      5        6           0.000002076    0.000017873   -0.000006092
      6        6           0.000021448   -0.000008504   -0.000010498
      7        1          -0.000002866   -0.000000202    0.000010329
      8        1           0.000002084   -0.000004459    0.000006366
      9        1           0.000000123    0.000005305    0.000006098
     10        1          -0.000002303    0.000000484    0.000010743
     11        8          -0.000009225   -0.000003375    0.000022447
     12        1           0.000003952    0.000007443   -0.000000616
     13        1           0.000003771   -0.000007466   -0.000001176
 -------------------------------------------------------------------
 Cartesian Forces:  Max     0.000033149 RMS     0.000012840

 GradGradGradGradGradGradGradGradGradGradGradGradGradGradGradGradGradGrad
 Berny optimization.
 Search for a local minimum.
 Step number   1 out of a maximum of    2
 All quantities printed in internal units (Hartrees-Bohrs-Radians)
 Second derivative matrix not updated -- analytic derivatives used.
 ITU=  0
     Eigenvalues ---   -0.08139   0.01088   0.01380   0.02346   0.02703
     Eigenvalues ---    0.03824   0.04691   0.04924   0.05305   0.05365
     Eigenvalues ---    0.06313   0.08421   0.08790   0.09966   0.14422
     Eigenvalues ---    0.15114   0.16759   0.18044   0.20075   0.21481
     Eigenvalues ---    0.24728   0.31939   0.42018   0.54945   0.70759
     Eigenvalues ---    0.72025   0.90074   0.90134   1.00226   1.05889
     Eigenvalues ---    1.07619   1.17776   1.26268
 Eigenvalue     1 is  -8.14D-02 should be greater than     0.000000 Eigenvector:
                          Y4        Y3        Z11       Z4        Z3
   1                    0.54971  -0.54970  -0.32911   0.23790   0.23790
                          Y13       Y12       Z8        Z9        Y5
   1                   -0.19636   0.19636  -0.15384  -0.15383   0.07484
 Angle between quadratic step and forces=  56.70 degrees.
 Linear search not attempted -- first point.
 B after Tr=     0.000004   -0.000001   -0.000067
         Rot=    1.000000    0.000000   -0.000004    0.000000 Ang=   0.00 deg.
 Variable       Old X    -DE/DX   Delta X   Delta X   Delta X     New X
                                 (Linear)    (Quad)   (Total)
    X1        2.67205   0.00003   0.00000   0.00009   0.00009   2.67215
    Y1       -1.32982   0.00001   0.00000  -0.00003  -0.00003  -1.32985
    Z1        0.30827  -0.00001   0.00000  -0.00019  -0.00028   0.30799
    X2        0.57826   0.00000   0.00000   0.00003   0.00003   0.57829
    Y2       -2.74135  -0.00002   0.00000  -0.00003  -0.00003  -2.74138
    Z2       -0.45641  -0.00001   0.00000  -0.00003  -0.00010  -0.45651
    X3       -1.87096  -0.00003   0.00000  -0.00005  -0.00005  -1.87102
    Y3       -1.73836   0.00002   0.00000   0.00022   0.00022  -1.73814
    Z3       -0.43534  -0.00001   0.00000  -0.00014  -0.00019  -0.43553
    X4       -1.87094  -0.00002   0.00000  -0.00005  -0.00004  -1.87099
    Y4        1.73838  -0.00002   0.00000  -0.00021  -0.00021   1.73817
    Z4       -0.43532  -0.00001   0.00000  -0.00016  -0.00021  -0.43553
    X5        0.57829   0.00000   0.00000   0.00004   0.00004   0.57834
    Y5        2.74135   0.00002   0.00000   0.00002   0.00002   2.74137
    Z5       -0.45641  -0.00001   0.00000  -0.00004  -0.00011  -0.45652
    X6        2.67209   0.00002   0.00000   0.00007   0.00008   2.67217
    Y6        1.32978  -0.00001   0.00000   0.00002   0.00002   1.32980
    Z6        0.30827  -0.00001   0.00000  -0.00019  -0.00028   0.30799
    X7        4.48978   0.00000   0.00000   0.00001   0.00002   4.48980
    Y7       -2.29067   0.00000   0.00000  -0.00006  -0.00006  -2.29073
    Z7        0.52455   0.00001   0.00000   0.00026   0.00016   0.52471
    X8        0.85234   0.00000   0.00000  -0.00004  -0.00005   0.85230
    Y8       -4.62142   0.00000   0.00000  -0.00021  -0.00021  -4.62163
    Z8       -1.27235   0.00001   0.00000   0.00034   0.00027  -1.27209
    X9        0.85244   0.00000   0.00000  -0.00006  -0.00006   0.85237
    Y9        4.62140   0.00001   0.00000   0.00021   0.00021   4.62161
    Z9       -1.27237   0.00001   0.00000   0.00035   0.00027  -1.27210
   X10        4.48984   0.00000   0.00000  -0.00001   0.00000   4.48984
   Y10        2.29059   0.00000   0.00000   0.00006   0.00006   2.29065
   Z10        0.52453   0.00001   0.00000   0.00028   0.00017   0.52470
   X11       -2.54036  -0.00001   0.00000  -0.00009  -0.00008  -2.54043
   Y11        0.00002   0.00000   0.00000   0.00000   0.00000   0.00002
   Z11        1.41032   0.00002   0.00000   0.00011   0.00006   1.41039
   X12       -3.45716   0.00000   0.00000   0.00002   0.00001  -3.45715
   Y12        2.66846   0.00001   0.00000   0.00028   0.00028   2.66874
   Z12       -1.39265   0.00000   0.00000   0.00016   0.00012  -1.39253
   X13       -3.45720   0.00000   0.00000   0.00002   0.00001  -3.45719
   Y13       -2.66843  -0.00001   0.00000  -0.00026  -0.00026  -2.66869
   Z13       -1.39265   0.00000   0.00000   0.00016   0.00012  -1.39253
         Item               Value     Threshold  Converged?
 Maximum Force            0.000033     0.000450     YES
 RMS     Force            0.000013     0.000300     YES
 Maximum Displacement     0.000283     0.001800     YES
 RMS     Displacement     0.000150     0.001200     YES
 Predicted change in Energy=-3.136367D-08
 Optimization completed.
    -- Stationary point found.
 GradGradGradGradGradGradGradGradGradGradGradGradGradGradGradGradGradGrad

 1\1\GINC-QC0019\Freq\RB3LYP\SVP\C6H6O1\ELIOT\02-Oct-2018\0\\# freq b3l
 yp/svp\\ts.log\\0,1\C,1.41399,-0.70371,0.16313\C,0.306,-1.45066,-0.241
 52\C,-0.99007,-0.9199,-0.23037\C,-0.99006,0.91991,-0.23036\C,0.30602,1
 .45066,-0.24152\C,1.41401,0.70369,0.16313\H,2.37589,-1.21217,0.27758\H
 ,0.45104,-2.44555,-0.6733\H,0.45109,2.44554,-0.67331\H,2.37592,1.21213
 ,0.27757\O,-1.3443,0.00001,0.74631\H,-1.82945,1.41209,-0.73696\H,-1.82
 947,-1.41207,-0.73696\\Version=ES64L-G09RevE.01\State=1-A\HF=-307.1636
 337\RMSD=5.851e-09\RMSF=1.284e-05\ZeroPoint=0.1021041\Thermal=0.107094
 8\Dipole=0.1404147,-0.0000111,-0.6357346\DipoleDeriv=0.0335436,-0.0362
 057,0.0399587,-0.084849,0.0524324,0.0082213,0.021727,-0.033036,-0.1410
 156,-0.0793591,-0.054776,0.0032783,-0.0434266,-0.123369,0.0686168,-0.0
 344458,0.1033056,-0.1003379,0.3276403,0.0305866,0.0278884,0.0112114,0.
 2603646,0.2317084,-0.0901235,0.17298,0.2324853,0.3276649,-0.030598,0.0
 278884,-0.0112022,0.2603549,-0.2317117,-0.0901302,-0.1729878,0.2324977
 ,-0.079372,0.0547938,0.0032766,0.0434252,-0.123374,-0.068619,-0.034448
 4,-0.1033081,-0.1003401,0.0335467,0.0361953,0.039955,0.0848433,0.05244
 58,-0.0082232,0.021723,0.0330331,-0.1410172,-0.056849,0.0687456,-0.036
 2343,0.0610872,0.0279021,0.0058581,-0.0154356,-0.0179268,0.116577,0.07
 52046,0.021356,-0.0069215,0.0169371,-0.0447165,-0.0652671,-0.0147047,-
 0.0773733,0.096032,0.0752022,-0.0213593,-0.0069197,-0.0169392,-0.04471
 23,0.0652675,-0.014702,0.0773793,0.0960312,-0.0568474,-0.0687416,-0.03
 62329,-0.0610821,0.027907,-0.0058561,-0.0154313,0.0179265,0.1165787,-0
 .5154739,-0.0000017,0.0675156,-0.0000068,-0.3850058,0.0000044,0.276147
 5,0.0000039,-0.5407598,-0.0424523,0.0486499,-0.0617272,0.0803684,0.019
 8841,0.0772252,-0.0050903,0.071285,0.0666316,-0.0424487,-0.0486448,-0.
 0617254,-0.0803668,0.0198867,-0.0772247,-0.0050857,-0.0712812,0.066637
 \Polar=76.4328553,0.0001053,79.8616562,7.2534467,-0.0000582,35.5651826
 \PG=C01 [X(C6H6O1)]\NImag=1\\0.68625800,-0.01969082,0.66164234,0.12223
 895,0.04008350,0.16746690,-0.25995256,-0.06106479,-0.05473435,0.671931
 40,-0.11991589,-0.17687373,-0.05733153,-0.02274462,0.63077031,-0.07506
 266,-0.05183774,-0.08793078,0.06056204,0.20403287,0.22528405,-0.053483
 07,-0.02500956,-0.01553064,-0.32044806,0.10036823,-0.00875501,0.702528
 87,0.02552632,0.06576162,0.01793412,0.01650814,-0.11377376,-0.03253967
 ,0.00104447,0.29797374,-0.01937060,-0.01438499,0.00231560,0.01251502,-
 0.01498054,-0.06369912,0.07526718,0.23185773,0.30559221,-0.01302566,-0
 .02803757,-0.00220981,0.02371812,0.00926752,0.00552072,-0.02018642,0.0
 2576132,-0.02431399,0.70251359,-0.02450999,-0.05514504,-0.00831894,0.0
 7219652,-0.00999830,0.01960874,-0.02576052,0.03916301,-0.06566233,-0.0
 0104841,0.29798113,-0.01397518,-0.01459165,-0.00776158,0.03051471,-0.0
 0979001,-0.00170331,-0.02431308,0.06566278,0.00781191,0.07525770,-0.23
 187019,0.30560623,0.03085366,0.07107532,0.00102503,-0.05784651,-0.0061
 8657,-0.01038811,0.02371666,-0.07219642,0.03051490,-0.32043768,-0.0165
 0111,0.01251659,0.67190520,0.02038303,-0.03303413,0.00755073,0.0061872
 4,-0.00355993,0.00395553,-0.00926756,-0.00999720,0.00978914,-0.1003612
 4,-0.11377192,0.01498174,0.02275566,0.63076272,-0.00080150,0.01329766,
 0.00412816,-0.01038779,-0.00395541,-0.00066348,0.00552034,-0.01960811,
 -0.00170342,-0.00875293,0.03254074,-0.06370088,0.06054816,-0.20403401,
 0.22528723,-0.12024417,-0.03539977,-0.00785562,0.03085155,-0.02038394,
 -0.00080141,-0.01302451,0.02450867,-0.01397466,-0.05348180,-0.02552415
 ,-0.01937011,-0.25993571,0.11990498,-0.07505494,0.68624815,0.03539324,
 -0.32453282,0.00038348,-0.07107671,-0.03303280,-0.01329788,0.02803727,
 -0.05514542,0.01459198,0.02501094,0.06576174,0.01438495,0.06105454,-0.
 17687031,0.05183499,0.01970711,0.66163546,-0.00785547,-0.00038292,-0.0
 5603445,0.00102478,-0.00755068,0.00412814,-0.00220960,0.00831861,-0.00
 776153,-0.01553042,-0.01793394,0.00231558,-0.05472611,0.05732777,-0.08
 793053,0.12222912,-0.04008260,0.16746537,-0.27213147,0.11645130,-0.030
 69448,-0.01863211,0.01309652,-0.00110399,-0.00138766,-0.00364961,-0.00
 399866,0.00024455,-0.00070504,0.00060124,0.00173648,-0.00000474,-0.000
 32914,0.00221465,-0.00356105,-0.00015237,0.28692808,0.11472155,-0.1152
 2413,0.01031802,-0.01727702,0.01037625,-0.00146528,-0.00250438,-0.0012
 8149,-0.00241740,-0.00081156,-0.00065584,-0.00002165,-0.00134686,-0.00
 452188,-0.00035200,0.02810159,-0.01201516,0.00338857,-0.12181176,0.121
 79163,-0.03046073,0.00365548,-0.04155976,-0.00169254,0.00521052,0.0038
 2276,-0.00321596,0.00079286,0.00460596,-0.00098087,-0.00276914,-0.0023
 3428,-0.00043507,-0.00127582,0.00675878,0.00231546,0.00344991,0.002838
 17,0.03378288,-0.01135668,0.03030007,0.00581172,-0.02455385,-0.0086205
 0,-0.05835424,0.03914552,0.00759862,0.00129577,0.02218057,0.01299664,-
 0.00162860,-0.00017016,0.00152092,0.00001653,-0.00025884,-0.00019054,-
 0.00335659,-0.00090655,-0.00186415,0.00072212,0.00021424,0.00068116,0.
 05929091,0.00079419,-0.01367196,-0.00569001,0.04397936,-0.28244754,-0.
 10733104,-0.00538059,-0.00313404,-0.00580209,-0.00098871,-0.00323809,-
 0.00174268,0.00324232,0.00004477,0.00060405,-0.00269081,0.00356930,-0.
 00422108,-0.00069785,0.00027006,0.00219922,-0.03901203,0.29787797,0.00
 894654,-0.00156484,0.00260578,-0.00130968,-0.11088525,-0.08223838,0.00
 552176,-0.00849182,0.00528621,0.00359066,0.00844221,0.00371047,-0.0063
 7278,0.00113153,-0.00149157,-0.00088728,-0.00571948,0.00474155,0.00129
 413,0.00098789,-0.00314783,-0.01222341,0.11893715,0.07405316,-0.003356
 64,0.00090675,-0.00186403,0.00001645,0.00025880,-0.00019056,-0.0016284
 6,0.00017011,0.00152081,0.00129587,-0.02217998,0.01299700,-0.05835628,
 -0.03915245,0.00760233,0.00581223,0.02455347,-0.00862071,-0.00012730,0
 .00095124,0.00061626,0.00008003,-0.00004314,0.00012076,0.05929242,0.00
 269109,0.00356918,0.00422115,-0.00324235,0.00004480,-0.00060406,0.0009
 8874,-0.00323809,0.00174262,0.00538091,-0.00313303,0.00580150,-0.04398
 598,-0.28244553,0.10733427,-0.00079451,-0.01367252,0.00569045,0.000000
 21,-0.00033126,-0.00014808,0.00004315,0.00020434,-0.00052531,0.0390183
 5,0.29787557,-0.00088717,0.00571957,0.00474150,-0.00637273,-0.00113147
 ,-0.00149164,0.00359052,-0.00844204,0.00371035,0.00552169,0.00849107,0
 .00528581,-0.00130589,0.11088882,-0.08224055,0.00894665,0.00156479,0.0
 0260570,-0.00001453,0.00074794,0.00099277,0.00012077,0.00052530,-0.000
 92711,-0.01222709,-0.11894030,0.07405570,0.00221430,0.00356101,-0.0001
 5238,0.00173644,0.00000464,-0.00032906,0.00024457,0.00070503,0.0006012
 2,-0.00138757,0.00364957,-0.00399857,-0.01863133,-0.01309580,-0.001103
 58,-0.27213988,-0.11645048,-0.03069306,0.00096592,0.00001726,0.0004625
 6,-0.00012729,-0.00000020,-0.00001453,0.00072209,0.00069782,0.00129402
 ,0.28693602,-0.02810165,-0.01201438,-0.00338839,0.00134674,-0.00452181
 ,0.00035209,0.00081152,-0.00065582,0.00002165,0.00250433,-0.00128166,0
 .00241751,0.01727738,0.01037617,0.00146506,-0.11472032,-0.11521997,-0.
 01031644,-0.00001728,0.00102196,-0.00003637,-0.00095121,-0.00033122,-0
 .00074794,-0.00021429,0.00027004,-0.00098792,0.12181044,0.12178683,0.0
 0231534,-0.00345033,0.00283797,-0.00043486,0.00127593,0.00675883,-0.00
 098091,0.00276924,-0.00233428,-0.00321594,-0.00079288,0.00460583,-0.00
 169229,-0.00521050,0.00382269,-0.03045913,-0.00365357,-0.04155834,0.00
 046261,0.00003631,-0.00418428,0.00061623,0.00014804,0.00099280,0.00068
 108,-0.00219920,-0.00314769,0.03378104,0.01135503,0.03029885,-0.000520
 33,-0.00280150,-0.00047285,0.00034657,0.02296483,0.03319523,-0.0865930
 6,0.05085704,0.02806104,-0.08659569,-0.05086163,0.02806621,0.00034635,
 -0.02296554,0.03319571,-0.00051997,0.00280171,-0.00047273,0.00048580,0
 .00049446,-0.00106623,-0.00405798,0.00086495,0.00058128,-0.00405810,-0
 .00086488,0.00058119,0.00048579,-0.00049447,-0.00106625,0.15070968,-0.
 01014117,0.00073923,-0.00261909,0.02306897,-0.02898153,-0.02542332,0.0
 3201180,-0.12190552,-0.10539457,-0.03201620,-0.12191396,0.10540563,-0.
 02307003,-0.02898075,0.02542232,0.01014115,0.00073870,0.00261918,0.000
 39473,0.00015727,0.00048316,0.00519796,0.00092355,-0.00333214,-0.00519
 770,0.00092378,0.00333220,-0.00039474,0.00015728,-0.00048313,0.0000052
 4,0.33637053,0.01382828,0.02496075,0.00586787,-0.03129259,-0.00608462,
 -0.00703402,0.05754966,-0.19636429,-0.16385584,0.05755613,0.19637412,-
 0.16386561,-0.03129226,0.00608520,-0.00703355,0.01382765,-0.02496103,0
 .00586756,-0.00005933,0.00004786,0.00183760,-0.00080392,0.00140978,-0.
 00176204,-0.00080399,-0.00140967,-0.00176185,-0.00005930,-0.00004785,0
 .00183760,-0.09080429,-0.00001071,0.36463286,0.00053796,-0.00014483,0.
 00028025,-0.00053946,0.00012971,-0.00007434,-0.00044654,-0.00119619,0.
 00070481,-0.23058212,0.09021871,-0.10052239,-0.01282793,0.01600498,-0.
 01017174,-0.00296189,-0.00470830,-0.00140953,-0.00002481,0.00009800,0.
 00014125,0.00008860,0.00000658,-0.00001463,0.00021910,0.00007403,0.000
 76720,-0.00099424,0.00084681,-0.00014818,0.01498574,-0.00604953,0.0061
 7701,0.23224367,0.00038000,-0.00121277,-0.00054166,0.00149073,0.001345
 47,-0.00048819,0.00154992,0.00091755,0.00948061,0.09688849,-0.09468596
 ,0.05884280,-0.01062742,0.01065255,-0.00503776,-0.00247003,-0.00000337
 ,0.00260142,0.,0.00010652,-0.00018805,-0.00000759,-0.00008216,0.000253
 35,0.00092125,0.00001489,-0.00151461,-0.00050455,0.00030606,0.00001701
 ,0.00822301,-0.01911428,0.01354350,-0.09556188,0.10220397,0.00106550,-
 0.00032682,-0.00052594,-0.00044288,0.00135699,0.00144532,0.00482361,-0
 .00456929,-0.00032482,-0.09726675,0.05732137,-0.08964518,0.00205072,0.
 00016684,0.00332179,0.00001878,0.00117767,0.00384871,-0.00003388,0.000
 06819,-0.00025260,-0.00026115,0.00004398,0.00019523,0.00042927,-0.0009
 1941,-0.00201824,0.00024552,-0.00001824,0.00032263,-0.01489905,0.02188
 393,-0.01736546,0.10459128,-0.07657681,0.10068032,-0.00296174,0.004708
 31,-0.00140957,-0.01282757,-0.01600476,-0.01017145,-0.23058808,-0.0902
 1946,-0.10052371,-0.00044659,0.00119619,0.00070494,-0.00053943,-0.0001
 2972,-0.00007437,0.00053794,0.00014482,0.00028025,-0.00099425,-0.00084
 677,-0.00014818,0.00021904,-0.00007407,0.00076719,0.00008860,-0.000006
 58,-0.00001463,-0.00002481,-0.00009800,0.00014125,0.01498521,0.0060495
 2,0.00617694,0.00030194,-0.00028192,-0.00032098,0.23224975,0.00247011,
 -0.00000342,-0.00260137,0.01062778,0.01065258,0.00503796,-0.09688935,-
 0.09468458,-0.05884181,-0.00154983,0.00091792,-0.00948073,-0.00149084,
 0.00134546,0.00048820,-0.00037996,-0.00121283,0.00054165,0.00050458,0.
 00030605,-0.00001701,-0.00092121,0.00001501,0.00151464,0.00000758,-0.0
 0008217,-0.00025335,0.,0.00010653,0.00018806,-0.00822321,-0.01911428,-
 0.01354303,0.00028191,-0.00044847,0.00039161,0.09556244,0.10220220,0.0
 0001869,-0.00117766,0.00384875,0.00205087,-0.00016679,0.00332162,-0.09
 726788,-0.05732012,-0.08964324,0.00482382,0.00456918,-0.00032500,-0.00
 044291,-0.00135696,0.00144532,0.00106550,0.00032680,-0.00052593,0.0002
 4552,0.00001824,0.00032265,0.00042933,0.00091938,-0.00201827,-0.000261
 14,-0.00004396,0.00019525,-0.00003388,-0.00006819,-0.00025260,-0.01489
 927,-0.02188347,-0.01736511,-0.00032098,-0.00039160,0.00031822,0.10459
 232,0.07657518,0.10067834\\-0.00003315,-0.00001109,0.00000724,0.000003
 82,0.00002469,0.00000932,0.00002657,-0.00002434,0.00000756,0.00002182,
 0.00001785,0.00001348,-0.00000208,-0.00001787,0.00000609,-0.00002145,0
 .00000850,0.00001050,0.00000287,0.00000020,-0.00001033,-0.00000208,0.0
 0000446,-0.00000637,-0.00000012,-0.00000530,-0.00000610,0.00000230,-0.
 00000048,-0.00001074,0.00000923,0.00000337,-0.00002245,-0.00000395,-0.
 00000744,0.00000062,-0.00000377,0.00000747,0.00000118\\\@


 Ideas are like rabbits. You get a couple and learn
 how to handle them, and pretty soon you have a dozen.
                                    -- John Steinbeck
 Job cpu time:       0 days  0 hours  4 minutes  0.1 seconds.
 File lengths (MBytes):  RWF=     30 Int=      0 D2E=      0 Chk=      2 Scr=      1
 Normal termination of Gaussian 09 at Tue Oct  2 16:43:45 2018.
