 Entering Gaussian System, Link 0=/home/eliot/software/g09E01/g09
 Initial command:
 /home/eliot/software/g09E01/l1.exe "/tmp/Gau-20608.inp" -scrdir="/tmp/"
 Entering Link 1 = /home/eliot/software/g09E01/l1.exe PID=     20610.
  
 Copyright (c) 1988,1990,1992,1993,1995,1998,2003,2009,2015,
            Gaussian, Inc.  All Rights Reserved.
  
 This is part of the Gaussian(R) 09 program.  It is based on
 the Gaussian(R) 03 system (copyright 2003, Gaussian, Inc.),
 the Gaussian(R) 98 system (copyright 1998, Gaussian, Inc.),
 the Gaussian(R) 94 system (copyright 1995, Gaussian, Inc.),
 the Gaussian 92(TM) system (copyright 1992, Gaussian, Inc.),
 the Gaussian 90(TM) system (copyright 1990, Gaussian, Inc.),
 the Gaussian 88(TM) system (copyright 1988, Gaussian, Inc.),
 the Gaussian 86(TM) system (copyright 1986, Carnegie Mellon
 University), and the Gaussian 82(TM) system (copyright 1983,
 Carnegie Mellon University). Gaussian is a federally registered
 trademark of Gaussian, Inc.
  
 This software contains proprietary and confidential information,
 including trade secrets, belonging to Gaussian, Inc.
  
 This software is provided under written license and may be
 used, copied, transmitted, or stored only in accord with that
 written license.
  
 The following legend is applicable only to US Government
 contracts under FAR:
  
                    RESTRICTED RIGHTS LEGEND
  
 Use, reproduction and disclosure by the US Government is
 subject to restrictions as set forth in subparagraphs (a)
 and (c) of the Commercial Computer Software - Restricted
 Rights clause in FAR 52.227-19.
  
 Gaussian, Inc.
 340 Quinnipiac St., Bldg. 40, Wallingford CT 06492
  
  
 ---------------------------------------------------------------
 Warning -- This program may not be used in any manner that
 competes with the business of Gaussian, Inc. or will provide
 assistance to any competitor of Gaussian, Inc.  The licensee
 of this program is prohibited from giving any competitor of
 Gaussian, Inc. access to this program.  By using this program,
 the user acknowledges that Gaussian, Inc. is engaged in the
 business of creating and licensing software in the field of
 computational chemistry and represents and warrants to the
 licensee that it is not a competitor of Gaussian, Inc. and that
 it will not use this program in any manner prohibited above.
 ---------------------------------------------------------------
  

 Cite this work as:
 Gaussian 09, Revision E.01,
 M. J. Frisch, G. W. Trucks, H. B. Schlegel, G. E. Scuseria, 
 M. A. Robb, J. R. Cheeseman, G. Scalmani, V. Barone, B. Mennucci, 
 G. A. Petersson, H. Nakatsuji, M. Caricato, X. Li, H. P. Hratchian, 
 A. F. Izmaylov, J. Bloino, G. Zheng, J. L. Sonnenberg, M. Hada, 
 M. Ehara, K. Toyota, R. Fukuda, J. Hasegawa, M. Ishida, T. Nakajima, 
 Y. Honda, O. Kitao, H. Nakai, T. Vreven, J. A. Montgomery, Jr., 
 J. E. Peralta, F. Ogliaro, M. Bearpark, J. J. Heyd, E. Brothers, 
 K. N. Kudin, V. N. Staroverov, T. Keith, R. Kobayashi, J. Normand, 
 K. Raghavachari, A. Rendell, J. C. Burant, S. S. Iyengar, J. Tomasi, 
 M. Cossi, N. Rega, J. M. Millam, M. Klene, J. E. Knox, J. B. Cross, 
 V. Bakken, C. Adamo, J. Jaramillo, R. Gomperts, R. E. Stratmann, 
 O. Yazyev, A. J. Austin, R. Cammi, C. Pomelli, J. W. Ochterski, 
 R. L. Martin, K. Morokuma, V. G. Zakrzewski, G. A. Voth, 
 P. Salvador, J. J. Dannenberg, S. Dapprich, A. D. Daniels, 
 O. Farkas, J. B. Foresman, J. V. Ortiz, J. Cioslowski, 
 and D. J. Fox, Gaussian, Inc., Wallingford CT, 2013.
 
 ******************************************
 Gaussian 09:  ES64L-G09RevE.01 30-Nov-2015
                 4-Oct-2018 
 ******************************************
 %nproc=4
 Will use up to    4 processors via shared memory.
 ----------------------
 # irc=calcfc hf/6-31g*
 ----------------------
 1/10=4,18=10,38=1,44=3/1,23;
 2/12=2,17=6,18=5,29=1,40=1/2;
 3/5=1,6=6,7=1,11=9,16=1,25=1,30=1,71=2,140=1/1,2,3;
 4//1;
 5/5=2,38=5/2;
 8/6=4,10=90,11=11/1;
 11/6=1,8=1,9=11,15=111,16=1/1,2,10;
 10/6=1,13=1/2;
 6/7=2,8=2,9=2,10=2,28=1/1;
 7/10=1,18=20,25=1/1,2,3,16;
 1/10=4,18=10,44=3/23(2);
 2/29=1/2;
 99/5=20/99;
 2/29=1/2;
 3/5=1,6=6,7=1,11=9,16=1,25=1,30=1,71=2,140=1/1,2,3;
 4/5=5,16=3,69=1/1;
 5/5=2,38=5/2;
 8/6=4,10=90,11=11/1;
 11/6=1,8=1,9=11,15=111,16=1/1,2,10;
 10/6=1,13=1/2;
 7/10=1,18=20,25=1/1,2,3,16;
 1/18=10,44=3/23(-8);
 2/29=1/2;
 6/7=2,8=2,9=2,10=2,19=2,28=1/1;
 99/5=20,9=1/99;
 ---------
 ts-hf.log
 ---------
 Symbolic Z-matrix:
 Charge =  0 Multiplicity = 1
 C                    -1.39985   0.69769   0.16147 
 C                    -0.30246   1.43785  -0.23761 
 C                     0.98044   0.90958  -0.22906 
 C                     0.98044  -0.90958  -0.22906 
 C                    -0.30246  -1.43785  -0.23761 
 C                    -1.39985  -0.69769   0.16147 
 H                    -2.34635   1.19744   0.27083 
 H                    -0.44614   2.41545  -0.6638 
 H                    -0.44614  -2.41545  -0.6638 
 H                    -2.34635  -1.19744   0.27083 
 O                     1.32862   0.        0.73458 
 H                     1.80926  -1.39254  -0.71419 
 H                     1.80926   1.39254  -0.71419 
 
 IRC-IRC-IRC-IRC-IRC-IRC-IRC-IRC-IRC-IRC-IRC-IRC-IRC-IRC-IRC-IRC-IRC-IRC
 ------------------------------------------------------------------------
 INPUT DATA FOR L123
 ------------------------------------------------------------------------
 GENERAL PARAMETERS:
 Follow reaction path in both directions.
 Maximum points per path      =  10
 Step size                    =   0.100 bohr
 Integration scheme           = HPC                                 
    Redo corrector integration= Yes                                 
    DWI Weight Power          =  2
    DWI will use Hessian update vectors when possible.
    Max correction cycles     =  20
 Initial Hessian              = CalcFC
 Hessian evaluation           = All updating
 Hessian updating method      = Bofill                              
 ------------------------------------------------------------------------
 IRC-IRC-IRC-IRC-IRC-IRC-IRC-IRC-IRC-IRC-IRC-IRC-IRC-IRC-IRC-IRC-IRC-IRC
                          Input orientation:                          
 ---------------------------------------------------------------------
 Center     Atomic      Atomic             Coordinates (Angstroms)
 Number     Number       Type             X           Y           Z
 ---------------------------------------------------------------------
      1          6           0       -1.399850    0.697690    0.161470
      2          6           0       -0.302460    1.437850   -0.237610
      3          6           0        0.980440    0.909580   -0.229060
      4          6           0        0.980440   -0.909580   -0.229060
      5          6           0       -0.302460   -1.437850   -0.237610
      6          6           0       -1.399850   -0.697690    0.161470
      7          1           0       -2.346350    1.197440    0.270830
      8          1           0       -0.446140    2.415450   -0.663800
      9          1           0       -0.446140   -2.415450   -0.663800
     10          1           0       -2.346350   -1.197440    0.270830
     11          8           0        1.328620    0.000000    0.734580
     12          1           0        1.809260   -1.392540   -0.714190
     13          1           0        1.809260    1.392540   -0.714190
 ---------------------------------------------------------------------
                    Distance matrix (angstroms):
                    1          2          3          4          5
     1  C    0.000000
     2  C    1.382522   0.000000
     3  C    2.421403   1.387435   0.000000
     4  C    2.898553   2.675132   1.819160   0.000000
     5  C    2.433939   2.875700   2.675132   1.387435   0.000000
     6  C    1.395380   2.433939   2.898553   2.421403   1.382522
     7  H    1.075905   2.119857   3.376431   3.969503   3.373537
     8  H    2.131040   1.076096   2.119381   3.644167   3.879459
     9  H    3.358910   3.879459   3.644167   2.119381   1.076096
    10  H    2.121165   3.373537   3.969503   3.376431   2.119857
    11  O    2.873982   2.381804   1.370097   1.370097   2.381804
    12  H    3.928642   3.563369   2.494404   1.074962   2.165304
    13  H    3.398232   2.165304   1.074962   2.494404   3.563369
                    6          7          8          9         10
     6  C    0.000000
     7  H    2.121165   0.000000
     8  H    3.358910   2.442924   0.000000
     9  H    2.131040   4.187757   4.830900   0.000000
    10  H    1.075905   2.394880   4.187757   2.442924   0.000000
    11  O    2.873982   3.892856   3.307512   3.307512   3.892856
    12  H    3.398232   4.994733   4.426077   2.477037   4.275210
    13  H    3.928642   4.275210   2.477037   4.426077   4.994733
                   11         12         13
    11  O    0.000000
    12  H    2.066184   0.000000
    13  H    2.066184   2.785080   0.000000
 Symmetry turned off by external request.
 Stoichiometry    C6H6O
 Framework group  CS[SG(O),X(C6H6)]
 Deg. of freedom    17
 Full point group                 CS      NOp   2
 Rotational constants (GHZ):      4.4525820      3.8150334      2.3140192
 Standard basis: 6-31G(d) (6D, 7F)
   117 basis functions,   220 primitive gaussians,   117 cartesian basis functions
    25 alpha electrons       25 beta electrons
       nuclear repulsion energy       282.8479297386 Hartrees.
 NAtoms=   13 NActive=   13 NUniq=   13 SFac= 1.00D+00 NAtFMM=   60 NAOKFM=F Big=F
 Integral buffers will be    131072 words long.
 Raffenetti 1 integral format.
 Two-electron integral symmetry is turned off.
 One-electron integrals computed using PRISM.
 NBasis=   117 RedAO= T EigKep=  7.93D-04  NBF=   117
 NBsUse=   117 1.00D-06 EigRej= -1.00D+00 NBFU=   117
 ExpMin= 1.61D-01 ExpMax= 5.48D+03 ExpMxC= 8.25D+02 IAcc=1 IRadAn=         1 AccDes= 0.00D+00
 Harris functional with IExCor=  205 and IRadAn=       1 diagonalized for initial guess.
 HarFok:  IExCor=  205 AccDes= 0.00D+00 IRadAn=         1 IDoV= 1 UseB2=F ITyADJ=14
 ICtDFT=  3500011 ScaDFX=  1.000000  1.000000  1.000000  1.000000
 FoFCou: FMM=F IPFlag=           0 FMFlag=      100000 FMFlg1=           0
         NFxFlg=           0 DoJE=T BraDBF=F KetDBF=T FulRan=T
         wScrn=  0.000000 ICntrl=     500 IOpCl=  0 I1Cent=   200000004 NGrid=           0
         NMat0=    1 NMatS0=      1 NMatT0=    0 NMatD0=    1 NMtDS0=    0 NMtDT0=    0
 Symmetry not used in FoFCou.
 Keep R1 ints in memory in canonical form, NReq=24776455.
 Requested convergence on RMS density matrix=1.00D-08 within 128 cycles.
 Requested convergence on MAX density matrix=1.00D-06.
 Requested convergence on             energy=1.00D-06.
 No special actions if energy rises.
 SCF Done:  E(RHF) =  -305.462279575     A.U. after   14 cycles
            NFock= 14  Conv=0.29D-08     -V/T= 2.0011
 Range of M.O.s used for correlation:     1   117
 NBasis=   117 NAE=    25 NBE=    25 NFC=     0 NFV=     0
 NROrb=    117 NOA=    25 NOB=    25 NVA=    92 NVB=    92
 Symmetrizing basis deriv contribution to polar:
 IMax=3 JMax=2 DiffMx= 0.00D+00
 G2DrvN: will do    14 centers at a time, making    1 passes.
 Calling FoFCou, ICntrl=  3107 FMM=F I1Cent=   0 AccDes= 0.00D+00.
 End of G2Drv F.D. properties file   721 does not exist.
 End of G2Drv F.D. properties file   722 does not exist.
 End of G2Drv F.D. properties file   788 does not exist.
          IDoAtm=1111111111111
          Differentiating once with respect to nuclear coordinates.
 Keep R1 ints in memory in canonical form, NReq=24740009.
          There are    42 degrees of freedom in the 1st order CPHF.  IDoFFX=6 NUNeed=     0.
     36 vectors produced by pass  0 Test12= 5.48D-15 2.38D-09 XBig12= 6.22D-02 8.69D-02.
 AX will form    36 AO Fock derivatives at one time.
     36 vectors produced by pass  1 Test12= 5.48D-15 2.38D-09 XBig12= 3.37D-03 1.90D-02.
     36 vectors produced by pass  2 Test12= 5.48D-15 2.38D-09 XBig12= 6.56D-05 1.59D-03.
     36 vectors produced by pass  3 Test12= 5.48D-15 2.38D-09 XBig12= 6.26D-07 1.08D-04.
     36 vectors produced by pass  4 Test12= 5.48D-15 2.38D-09 XBig12= 5.46D-09 1.13D-05.
     36 vectors produced by pass  5 Test12= 5.48D-15 2.38D-09 XBig12= 3.68D-11 9.39D-07.
     36 vectors produced by pass  6 Test12= 5.48D-15 2.38D-09 XBig12= 1.95D-13 6.56D-08.
      6 vectors produced by pass  7 Test12= 5.48D-15 2.38D-09 XBig12= 1.12D-15 4.44D-09.
 InvSVY:  IOpt=1 It=  1 EMax= 2.66D-15
 Solved reduced A of dimension   258 with    36 vectors.
 End of Minotr F.D. properties file   721 does not exist.
 End of Minotr F.D. properties file   722 does not exist.
 End of Minotr F.D. properties file   788 does not exist.

 **********************************************************************

            Population analysis using the SCF density.

 **********************************************************************

 Alpha  occ. eigenvalues --  -20.59134 -11.30205 -11.30188 -11.23463 -11.23353
 Alpha  occ. eigenvalues --  -11.23105 -11.23101  -1.44913  -1.11352  -1.04617
 Alpha  occ. eigenvalues --   -0.94612  -0.87905  -0.79054  -0.73116  -0.71700
 Alpha  occ. eigenvalues --   -0.65112  -0.63278  -0.62852  -0.58316  -0.53352
 Alpha  occ. eigenvalues --   -0.51758  -0.47873  -0.45435  -0.32095  -0.31890
 Alpha virt. eigenvalues --    0.13326   0.14759   0.23630   0.27834   0.28742
 Alpha virt. eigenvalues --    0.30355   0.32736   0.33536   0.35910   0.36967
 Alpha virt. eigenvalues --    0.46059   0.49148   0.50398   0.51463   0.68022
 Alpha virt. eigenvalues --    0.68615   0.70720   0.73910   0.75588   0.77238
 Alpha virt. eigenvalues --    0.78605   0.81034   0.82263   0.84105   0.84636
 Alpha virt. eigenvalues --    0.87824   0.91338   0.95192   0.95485   1.05950
 Alpha virt. eigenvalues --    1.10448   1.10892   1.11351   1.11719   1.13300
 Alpha virt. eigenvalues --    1.14840   1.14988   1.17422   1.19986   1.22711
 Alpha virt. eigenvalues --    1.27790   1.30101   1.30277   1.36574   1.42713
 Alpha virt. eigenvalues --    1.52025   1.53002   1.61683   1.65239   1.67060
 Alpha virt. eigenvalues --    1.72751   1.75509   1.78870   1.85448   1.89109
 Alpha virt. eigenvalues --    2.00407   2.08749   2.14844   2.17019   2.20076
 Alpha virt. eigenvalues --    2.26230   2.26450   2.31463   2.36918   2.38048
 Alpha virt. eigenvalues --    2.46668   2.46695   2.54068   2.57919   2.62089
 Alpha virt. eigenvalues --    2.62929   2.76069   2.77232   2.79952   2.91763
 Alpha virt. eigenvalues --    2.94158   2.95299   3.00061   3.01161   3.06852
 Alpha virt. eigenvalues --    3.14379   3.31985   3.34781   3.35573   3.65786
 Alpha virt. eigenvalues --    4.33253   4.52069   4.58950   4.61937   4.77032
 Alpha virt. eigenvalues --    4.83786   5.03354
          Condensed to atoms (all electrons):
               1          2          3          4          5          6
     1  C    4.891831   0.552242  -0.051846  -0.015749  -0.052515   0.548411
     2  C    0.552242   4.970931   0.526476  -0.028906  -0.031671  -0.052515
     3  C   -0.051846   0.526476   4.821685   0.144169  -0.028906  -0.015749
     4  C   -0.015749  -0.028906   0.144169   4.821685   0.526476  -0.051846
     5  C   -0.052515  -0.031671  -0.028906   0.526476   4.970931   0.552242
     6  C    0.548411  -0.052515  -0.015749  -0.051846   0.552242   4.891831
     7  H    0.389125  -0.033533   0.002847   0.000230   0.002732  -0.034430
     8  H   -0.028412   0.379066  -0.031885   0.000675   0.000106   0.002127
     9  H    0.002127   0.000106   0.000675  -0.031885   0.379066  -0.028412
    10  H   -0.034430   0.002732   0.000230   0.002847  -0.033533   0.389125
    11  O   -0.000089  -0.059994   0.195021   0.195021  -0.059994  -0.000089
    12  H    0.000117  -0.000223   0.001297   0.396745  -0.047282   0.003298
    13  H    0.003298  -0.047282   0.396745   0.001297  -0.000223   0.000117
               7          8          9         10         11         12
     1  C    0.389125  -0.028412   0.002127  -0.034430  -0.000089   0.000117
     2  C   -0.033533   0.379066   0.000106   0.002732  -0.059994  -0.000223
     3  C    0.002847  -0.031885   0.000675   0.000230   0.195021   0.001297
     4  C    0.000230   0.000675  -0.031885   0.002847   0.195021   0.396745
     5  C    0.002732   0.000106   0.379066  -0.033533  -0.059994  -0.047282
     6  C   -0.034430   0.002127  -0.028412   0.389125  -0.000089   0.003298
     7  H    0.481768  -0.001772  -0.000126  -0.002779  -0.000011   0.000005
     8  H   -0.001772   0.471972   0.000015  -0.000126   0.001892   0.000006
     9  H   -0.000126   0.000015   0.471972  -0.001772   0.001892   0.000218
    10  H   -0.002779  -0.000126  -0.001772   0.481768  -0.000011  -0.000097
    11  O   -0.000011   0.001892   0.001892  -0.000011   8.331991  -0.039579
    12  H    0.000005   0.000006   0.000218  -0.000097  -0.039579   0.481670
    13  H   -0.000097   0.000218   0.000006   0.000005  -0.039579   0.000445
              13
     1  C    0.003298
     2  C   -0.047282
     3  C    0.396745
     4  C    0.001297
     5  C   -0.000223
     6  C    0.000117
     7  H   -0.000097
     8  H    0.000218
     9  H    0.000006
    10  H    0.000005
    11  O   -0.039579
    12  H    0.000445
    13  H    0.481670
 Mulliken charges:
               1
     1  C   -0.204112
     2  C   -0.177429
     3  C    0.039239
     4  C    0.039239
     5  C   -0.177429
     6  C   -0.204112
     7  H    0.196040
     8  H    0.206117
     9  H    0.206117
    10  H    0.196040
    11  O   -0.526473
    12  H    0.203381
    13  H    0.203381
 Sum of Mulliken charges =   0.00000
 Mulliken charges with hydrogens summed into heavy atoms:
               1
     1  C   -0.008071
     2  C    0.028688
     3  C    0.242620
     4  C    0.242620
     5  C    0.028688
     6  C   -0.008071
    11  O   -0.526473
 APT charges:
               1
     1  C   -0.631184
     2  C   -0.523057
     3  C   -0.456187
     4  C   -0.456187
     5  C   -0.523057
     6  C   -0.631184
     7  H    0.607772
     8  H    0.591916
     9  H    0.591916
    10  H    0.607772
    11  O   -0.336587
    12  H    0.579034
    13  H    0.579034
 Sum of APT charges =   0.00000
 APT charges with hydrogens summed into heavy atoms:
               1
     1  C   -0.023412
     2  C    0.068859
     3  C    0.122846
     4  C    0.122846
     5  C    0.068859
     6  C   -0.023412
    11  O   -0.336587
 Electronic spatial extent (au):  <R**2>=            570.6720
 Charge=              0.0000 electrons
 Dipole moment (field-independent basis, Debye):
    X=             -0.4080    Y=              0.0000    Z=             -1.8964  Tot=              1.9398
 Quadrupole moment (field-independent basis, Debye-Ang):
   XX=            -37.5218   YY=            -35.9891   ZZ=            -44.6528
   XY=              0.0000   XZ=             -3.3869   YZ=              0.0000
 Traceless Quadrupole moment (field-independent basis, Debye-Ang):
   XX=              1.8661   YY=              3.3988   ZZ=             -5.2649
   XY=              0.0000   XZ=             -3.3869   YZ=              0.0000
 Octapole moment (field-independent basis, Debye-Ang**2):
  XXX=              0.9092  YYY=              0.0000  ZZZ=              2.0799  XYY=              1.8536
  XXY=              0.0000  XXZ=             -2.4828  XZZ=              2.8090  YZZ=              0.0000
  YYZ=             -5.2776  XYZ=              0.0000
 Hexadecapole moment (field-independent basis, Debye-Ang**3):
 XXXX=           -333.0913 YYYY=           -304.6313 ZZZZ=            -81.3547 XXXY=              0.0000
 XXXZ=            -10.6654 YYYX=              0.0000 YYYZ=              0.0000 ZZZX=              2.6104
 ZZZY=              0.0000 XXYY=           -101.1461 XXZZ=            -76.9533 YYZZ=            -66.7452
 XXYZ=              0.0000 YYXZ=             -0.5392 ZZXY=              0.0000
 N-N= 2.828479297386D+02 E-N=-1.279918726178D+03  KE= 3.051339179768D+02
  Exact polarizability:   0.000   0.000   0.000   0.000   0.000   0.000
 Approx polarizability:  69.467   0.000  74.466  -6.689   0.000  32.409
 Calling FoFJK, ICntrl=    100147 FMM=F ISym2X=0 I1Cent= 0 IOpClX= 0 NMat=1 NMatS=1 NMatT=0.
 -------------------------------------------------------------------
 Center     Atomic                   Forces (Hartrees/Bohr)
 Number     Number              X              Y              Z
 -------------------------------------------------------------------
      1        6          -0.000012394    0.000030529   -0.000001639
      2        6          -0.000015960    0.000010967   -0.000009975
      3        6           0.000061891    0.000009009    0.000008675
      4        6           0.000061891   -0.000009009    0.000008675
      5        6          -0.000015960   -0.000010967   -0.000009975
      6        6          -0.000012394   -0.000030529   -0.000001639
      7        1           0.000021106   -0.000011654   -0.000001580
      8        1           0.000003520   -0.000020635    0.000010467
      9        1           0.000003520    0.000020635    0.000010467
     10        1           0.000021106    0.000011654   -0.000001580
     11        8          -0.000020434    0.000000000   -0.000065112
     12        1          -0.000047946    0.000033322    0.000026608
     13        1          -0.000047946   -0.000033322    0.000026608
 -------------------------------------------------------------------
 Cartesian Forces:  Max     0.000065112 RMS     0.000025946
 IRC-IRC-IRC-IRC-IRC-IRC-IRC-IRC-IRC-IRC-IRC-IRC-IRC-IRC-IRC-IRC-IRC-IRC
          ******** Start new reaction path calculation ********
 Supplied step size of   0.1000 bohr.
    Integration on MW PES will use step size of   0.2494 sqrt(amu)*bohr.
 Point Number:   0          Path Number:   1
 Calculating another point on the path.
 IRC-IRC-IRC-IRC-IRC-IRC-IRC-IRC-IRC-IRC-IRC-IRC-IRC-IRC-IRC-IRC-IRC-IRC
                          Input orientation:                          
 ---------------------------------------------------------------------
 Center     Atomic      Atomic             Coordinates (Angstroms)
 Number     Number       Type             X           Y           Z
 ---------------------------------------------------------------------
      1          6           0       -1.418532    0.702843    0.136383
      2          6           0       -0.328149    1.436451   -0.258166
      3          6           0        0.960862    0.888754   -0.261424
      4          6           0        0.960862   -0.888754   -0.261424
      5          6           0       -0.328149   -1.436451   -0.258166
      6          6           0       -1.418532   -0.702843    0.136383
      7          1           0       -2.367421    1.199139    0.240544
      8          1           0       -0.463421    2.423648   -0.665195
      9          1           0       -0.463421   -2.423648   -0.665195
     10          1           0       -2.367421   -1.199139    0.240544
     11          8           0        1.310412    0.000000    0.721719
     12          1           0        1.788860   -1.380640   -0.739664
     13          1           0        1.788860    1.380640   -0.739664
 ---------------------------------------------------------------------
                    Distance matrix (angstroms):
                    1          2          3          4          5
     1  C    0.000000
     2  C    1.372146   0.000000
     3  C    2.419571   1.400547   0.000000
     4  C    2.890146   2.658598   1.777509   0.000000
     5  C    2.433348   2.872903   2.658598   1.400547   0.000000
     6  C    1.405685   2.433348   2.890146   2.419571   1.372146
     7  H    1.075896   2.112738   3.380204   3.960901   3.369522
     8  H    2.125073   1.076350   2.132489   3.628171   3.883857
     9  H    3.365964   3.883857   3.628171   2.132489   1.076350
    10  H    2.128092   3.369522   3.960901   3.380204   2.112738
    11  O    2.878149   2.389237   1.370635   1.370635   2.389237
    12  H    3.923738   3.556624   2.462610   1.075289   2.171792
    13  H    3.393262   2.171792   1.075289   2.462610   3.556624
                    6          7          8          9         10
     6  C    0.000000
     7  H    2.128092   0.000000
     8  H    3.365964   2.438238   0.000000
     9  H    2.125073   4.191679   4.847297   0.000000
    10  H    1.075896   2.398279   4.191679   2.438238   0.000000
    11  O    2.878149   3.898195   3.308185   3.308185   3.898195
    12  H    3.393262   4.989063   4.421643   2.483180   4.274158
    13  H    3.923738   4.274158   2.483180   4.421643   4.989063
                   11         12         13
    11  O    0.000000
    12  H    2.066572   0.000000
    13  H    2.066572   2.761281   0.000000
 Symmetry turned off by external request.
 Stoichiometry    C6H6O
 Framework group  CS[SG(O),X(C6H6)]
 Deg. of freedom    17
 Full point group                 CS      NOp   2
 Rotational constants (GHZ):      4.4747507      3.8052435      2.3214362
 Standard basis: 6-31G(d) (6D, 7F)
   117 basis functions,   220 primitive gaussians,   117 cartesian basis functions
    25 alpha electrons       25 beta electrons
       nuclear repulsion energy       283.0086671624 Hartrees.
 NAtoms=   13 NActive=   13 NUniq=   13 SFac= 1.00D+00 NAtFMM=   60 NAOKFM=F Big=F
 Integral buffers will be    131072 words long.
 Raffenetti 1 integral format.
 Two-electron integral symmetry is turned off.
 One-electron integrals computed using PRISM.
 NBasis=   117 RedAO= T EigKep=  7.65D-04  NBF=   117
 NBsUse=   117 1.00D-06 EigRej= -1.00D+00 NBFU=   117
 Initial guess from the checkpoint file:  "/tmp/Gau-20610.chk"
 B after Tr=    -0.038949    0.000000   -0.043588
         Rot=    1.000000    0.000000    0.000034    0.000000 Ang=   0.00 deg.
 ExpMin= 1.61D-01 ExpMax= 5.48D+03 ExpMxC= 8.25D+02 IAcc=1 IRadAn=         1 AccDes= 0.00D+00
 Harris functional with IExCor=  205 and IRadAn=       1 diagonalized for initial guess.
 HarFok:  IExCor=  205 AccDes= 0.00D+00 IRadAn=         1 IDoV= 1 UseB2=F ITyADJ=14
 ICtDFT=  3500011 ScaDFX=  1.000000  1.000000  1.000000  1.000000
 FoFCou: FMM=F IPFlag=           0 FMFlag=      100000 FMFlg1=           0
         NFxFlg=           0 DoJE=T BraDBF=F KetDBF=T FulRan=T
         wScrn=  0.000000 ICntrl=     500 IOpCl=  0 I1Cent=   200000004 NGrid=           0
         NMat0=    1 NMatS0=      1 NMatT0=    0 NMatD0=    1 NMtDS0=    0 NMtDT0=    0
 Symmetry not used in FoFCou.
 Keep R1 ints in memory in canonical form, NReq=24776483.
 Requested convergence on RMS density matrix=1.00D-08 within 128 cycles.
 Requested convergence on MAX density matrix=1.00D-06.
 Requested convergence on             energy=1.00D-06.
 No special actions if energy rises.
 SCF Done:  E(RHF) =  -305.462987212     A.U. after   11 cycles
            NFock= 11  Conv=0.95D-08     -V/T= 2.0011
 Range of M.O.s used for correlation:     1   117
 NBasis=   117 NAE=    25 NBE=    25 NFC=     0 NFV=     0
 NROrb=    117 NOA=    25 NOB=    25 NVA=    92 NVB=    92
 Symmetrizing basis deriv contribution to polar:
 IMax=3 JMax=2 DiffMx= 0.00D+00
 Calling FoFJK, ICntrl=      2147 FMM=F ISym2X=0 I1Cent= 0 IOpClX= 0 NMat=1 NMatS=1 NMatT=0.
 -------------------------------------------------------------------
 Center     Atomic                   Forces (Hartrees/Bohr)
 Number     Number              X              Y              Z
 -------------------------------------------------------------------
      1        6           0.000575852    0.002528620   -0.000912046
      2        6          -0.002277502   -0.000204606    0.001174333
      3        6           0.000749248   -0.010933147   -0.004497401
      4        6           0.000749249    0.010933147   -0.004497401
      5        6          -0.002277502    0.000204605    0.001174333
      6        6           0.000575852   -0.002528619   -0.000912046
      7        1           0.000025924    0.000068618   -0.000212283
      8        1           0.000185382    0.000160567    0.001061396
      9        1           0.000185382   -0.000160567    0.001061396
     10        1           0.000025924   -0.000068618   -0.000212283
     11        8           0.001656318    0.000000000    0.006852166
     12        1          -0.000087063    0.000477592   -0.000040081
     13        1          -0.000087063   -0.000477592   -0.000040081
 -------------------------------------------------------------------
 Cartesian Forces:  Max     0.010933147 RMS     0.003045040
 IRC-IRC-IRC-IRC-IRC-IRC-IRC-IRC-IRC-IRC-IRC-IRC-IRC-IRC-IRC-IRC-IRC-IRC
 Pt  1 Step number   1 out of a maximum of  20
 Modified Bulirsch-Stoer Extrapolation Cycles:
    EPS =    0.000010000000000
 Maximum DWI energy   std dev =  0.000002507 at pt     1
 Maximum DWI gradient std dev =  0.043361511 at pt     1
 CORRECTOR INTEGRATION CONVERGENCE:
   Recorrection delta-x convergence threshold:    0.010000
   Delta-x Convergence Met
 Point Number:   1          Path Number:   1
   CHANGE IN THE REACTION COORDINATE =    0.24935
   NET REACTION COORDINATE UP TO THIS POINT =    0.24935
  # OF POINTS ALONG THE PATH =   1
  # OF STEPS =   1

 Calculating another point on the path.
 IRC-IRC-IRC-IRC-IRC-IRC-IRC-IRC-IRC-IRC-IRC-IRC-IRC-IRC-IRC-IRC-IRC-IRC
                          Input orientation:                          
 ---------------------------------------------------------------------
 Center     Atomic      Atomic             Coordinates (Angstroms)
 Number     Number       Type             X           Y           Z
 ---------------------------------------------------------------------
      1          6           0       -1.417000    0.707967    0.134498
      2          6           0       -0.332879    1.435346   -0.255524
      3          6           0        0.962077    0.867703   -0.270358
      4          6           0        0.962077   -0.867703   -0.270358
      5          6           0       -0.332879   -1.435346   -0.255524
      6          6           0       -1.417000   -0.707967    0.134498
      7          1           0       -2.367778    1.201177    0.235359
      8          1           0       -0.459445    2.431954   -0.642464
      9          1           0       -0.459445   -2.431954   -0.642464
     10          1           0       -2.367778   -1.201177    0.235359
     11          8           0        1.312938    0.000000    0.731982
     12          1           0        1.788833   -1.369485   -0.741228
     13          1           0        1.788833    1.369485   -0.741228
 ---------------------------------------------------------------------
                    Distance matrix (angstroms):
                    1          2          3          4          5
     1  C    0.000000
     2  C    1.362540   0.000000
     3  C    2.418560   1.413984   0.000000
     4  C    2.882127   2.642190   1.735406   0.000000
     5  C    2.433357   2.870691   2.642190   1.413984   0.000000
     6  C    1.415934   2.433357   2.882127   2.418560   1.362540
     7  H    1.075828   2.106326   3.384507   3.952714   3.366456
     8  H    2.119602   1.076555   2.146175   3.612053   3.888669
     9  H    3.373379   3.888669   3.612053   2.146175   1.076555
    10  H    2.135177   3.366456   3.952714   3.384507   2.106326
    11  O    2.882840   2.396685   1.371385   1.371385   2.396685
    12  H    3.919193   3.550302   2.431102   1.075653   2.177592
    13  H    3.388491   2.177592   1.075653   2.431102   3.550302
                    6          7          8          9         10
     6  C    0.000000
     7  H    2.135177   0.000000
     8  H    3.373379   2.434567   0.000000
     9  H    2.119602   4.196659   4.863908   0.000000
    10  H    1.075828   2.402354   4.196659   2.434567   0.000000
    11  O    2.882840   3.903476   3.308299   3.308299   3.903476
    12  H    3.388491   4.983918   4.417629   2.488643   4.273109
    13  H    3.919193   4.273109   2.488643   4.417629   4.983918
                   11         12         13
    11  O    0.000000
    12  H    2.066958   0.000000
    13  H    2.066958   2.738971   0.000000
 Symmetry turned off by external request.
 Stoichiometry    C6H6O
 Framework group  CS[SG(O),X(C6H6)]
 Deg. of freedom    17
 Full point group                 CS      NOp   2
 Rotational constants (GHZ):      4.4954393      3.7944919      2.3281257
 Standard basis: 6-31G(d) (6D, 7F)
   117 basis functions,   220 primitive gaussians,   117 cartesian basis functions
    25 alpha electrons       25 beta electrons
       nuclear repulsion energy       283.1498468711 Hartrees.
 NAtoms=   13 NActive=   13 NUniq=   13 SFac= 1.00D+00 NAtFMM=   60 NAOKFM=F Big=F
 Integral buffers will be    131072 words long.
 Raffenetti 1 integral format.
 Two-electron integral symmetry is turned off.
 One-electron integrals computed using PRISM.
 NBasis=   117 RedAO= T EigKep=  7.39D-04  NBF=   117
 NBsUse=   117 1.00D-06 EigRej= -1.00D+00 NBFU=   117
 Initial guess from the checkpoint file:  "/tmp/Gau-20610.chk"
 B after Tr=     0.000134    0.000000    0.000604
         Rot=    1.000000    0.000000    0.000012    0.000000 Ang=   0.00 deg.
 ExpMin= 1.61D-01 ExpMax= 5.48D+03 ExpMxC= 8.25D+02 IAcc=1 IRadAn=         1 AccDes= 0.00D+00
 Harris functional with IExCor=  205 and IRadAn=       1 diagonalized for initial guess.
 HarFok:  IExCor=  205 AccDes= 0.00D+00 IRadAn=         1 IDoV= 1 UseB2=F ITyADJ=14
 ICtDFT=  3500011 ScaDFX=  1.000000  1.000000  1.000000  1.000000
 FoFCou: FMM=F IPFlag=           0 FMFlag=      100000 FMFlg1=           0
         NFxFlg=           0 DoJE=T BraDBF=F KetDBF=T FulRan=T
         wScrn=  0.000000 ICntrl=     500 IOpCl=  0 I1Cent=   200000004 NGrid=           0
         NMat0=    1 NMatS0=      1 NMatT0=    0 NMatD0=    1 NMtDS0=    0 NMtDT0=    0
 Symmetry not used in FoFCou.
 Keep R1 ints in memory in canonical form, NReq=24776539.
 Requested convergence on RMS density matrix=1.00D-08 within 128 cycles.
 Requested convergence on MAX density matrix=1.00D-06.
 Requested convergence on             energy=1.00D-06.
 No special actions if energy rises.
 SCF Done:  E(RHF) =  -305.465011582     A.U. after   11 cycles
            NFock= 11  Conv=0.95D-08     -V/T= 2.0012
 Range of M.O.s used for correlation:     1   117
 NBasis=   117 NAE=    25 NBE=    25 NFC=     0 NFV=     0
 NROrb=    117 NOA=    25 NOB=    25 NVA=    92 NVB=    92
 Symmetrizing basis deriv contribution to polar:
 IMax=3 JMax=2 DiffMx= 0.00D+00
 Calling FoFJK, ICntrl=      2147 FMM=F ISym2X=0 I1Cent= 0 IOpClX= 0 NMat=1 NMatS=1 NMatT=0.
 -------------------------------------------------------------------
 Center     Atomic                   Forces (Hartrees/Bohr)
 Number     Number              X              Y              Z
 -------------------------------------------------------------------
      1        6           0.000600085    0.004243064   -0.001753328
      2        6          -0.003515529   -0.000265267    0.002104034
      3        6           0.000995709   -0.020293210   -0.008466915
      4        6           0.000995709    0.020293210   -0.008466914
      5        6          -0.003515529    0.000265267    0.002104034
      6        6           0.000600085   -0.004243064   -0.001753328
      7        1          -0.000004618    0.000175672   -0.000300965
      8        1           0.000394159    0.000295249    0.002034402
      9        1           0.000394159   -0.000295249    0.002034402
     10        1          -0.000004618   -0.000175672   -0.000300965
     11        8           0.003267542    0.000000000    0.013052329
     12        1          -0.000103578    0.000867111   -0.000143392
     13        1          -0.000103578   -0.000867111   -0.000143392
 -------------------------------------------------------------------
 Cartesian Forces:  Max     0.020293210 RMS     0.005632300
 IRC-IRC-IRC-IRC-IRC-IRC-IRC-IRC-IRC-IRC-IRC-IRC-IRC-IRC-IRC-IRC-IRC-IRC
 Pt  2 Step number   1 out of a maximum of  20
 Modified Bulirsch-Stoer Extrapolation Cycles:
    EPS =    0.000010000000000
 Maximum DWI energy   std dev =  0.000008745 at pt    37
 Maximum DWI gradient std dev =  0.034838317 at pt    55
 CORRECTOR INTEGRATION CONVERGENCE:
   Recorrection delta-x convergence threshold:    0.010000
   Delta-x Convergence Met
 Point Number:   2          Path Number:   1
   CHANGE IN THE REACTION COORDINATE =    0.24926
   NET REACTION COORDINATE UP TO THIS POINT =    0.49861
  # OF POINTS ALONG THE PATH =   2
  # OF STEPS =   1

 Calculating another point on the path.
 IRC-IRC-IRC-IRC-IRC-IRC-IRC-IRC-IRC-IRC-IRC-IRC-IRC-IRC-IRC-IRC-IRC-IRC
                          Input orientation:                          
 ---------------------------------------------------------------------
 Center     Atomic      Atomic             Coordinates (Angstroms)
 Number     Number       Type             X           Y           Z
 ---------------------------------------------------------------------
      1          6           0       -1.416194    0.712713    0.132488
      2          6           0       -0.336834    1.434488   -0.252994
      3          6           0        0.963135    0.846449   -0.279288
      4          6           0        0.963135   -0.846449   -0.279288
      5          6           0       -0.336834   -1.434488   -0.252994
      6          6           0       -1.416194   -0.712713    0.132488
      7          1           0       -2.368211    1.203639    0.231980
      8          1           0       -0.454511    2.440164   -0.618538
      9          1           0       -0.454511   -2.440164   -0.618538
     10          1           0       -2.368211   -1.203639    0.231980
     11          8           0        1.315579    0.000000    0.742289
     12          1           0        1.788317   -1.358201   -0.743221
     13          1           0        1.788317    1.358201   -0.743221
 ---------------------------------------------------------------------
                    Distance matrix (angstroms):
                    1          2          3          4          5
     1  C    0.000000
     2  C    1.354464   0.000000
     3  C    2.418399   1.427025   0.000000
     4  C    2.874326   2.625506   1.692898   0.000000
     5  C    2.433945   2.868976   2.625506   1.427025   0.000000
     6  C    1.425426   2.433945   2.874326   2.418399   1.354464
     7  H    1.075752   2.101186   3.389225   3.944885   3.364730
     8  H    2.114937   1.076501   2.159800   3.595363   3.893635
     9  H    3.380755   3.893635   3.595363   2.159800   1.076501
    10  H    2.142111   3.364730   3.944885   3.389225   2.101186
    11  O    2.888322   2.403916   1.372703   1.372703   2.403916
    12  H    3.914645   3.543402   2.399300   1.076127   2.182294
    13  H    3.384141   2.182294   1.076127   2.399300   3.543402
                    6          7          8          9         10
     6  C    0.000000
     7  H    2.142111   0.000000
     8  H    3.380755   2.432000   0.000000
     9  H    2.114937   4.202728   4.880327   0.000000
    10  H    1.075752   2.407278   4.202728   2.432000   0.000000
    11  O    2.888322   3.908896   3.307486   3.307486   3.908896
    12  H    3.384141   4.979032   4.412867   2.493284   4.272193
    13  H    3.914645   4.272193   2.493284   4.412867   4.979032
                   11         12         13
    11  O    0.000000
    12  H    2.067591   0.000000
    13  H    2.067591   2.716402   0.000000
 Symmetry turned off by external request.
 Stoichiometry    C6H6O
 Framework group  CS[SG(O),X(C6H6)]
 Deg. of freedom    17
 Full point group                 CS      NOp   2
 Rotational constants (GHZ):      4.5150436      3.7825908      2.3343100
 Standard basis: 6-31G(d) (6D, 7F)
   117 basis functions,   220 primitive gaussians,   117 cartesian basis functions
    25 alpha electrons       25 beta electrons
       nuclear repulsion energy       283.2727674831 Hartrees.
 NAtoms=   13 NActive=   13 NUniq=   13 SFac= 1.00D+00 NAtFMM=   60 NAOKFM=F Big=F
 Integral buffers will be    131072 words long.
 Raffenetti 1 integral format.
 Two-electron integral symmetry is turned off.
 One-electron integrals computed using PRISM.
 NBasis=   117 RedAO= T EigKep=  7.14D-04  NBF=   117
 NBsUse=   117 1.00D-06 EigRej= -1.00D+00 NBFU=   117
 Initial guess from the checkpoint file:  "/tmp/Gau-20610.chk"
 B after Tr=     0.000153    0.000000    0.000703
         Rot=    1.000000    0.000000   -0.000021    0.000000 Ang=   0.00 deg.
 ExpMin= 1.61D-01 ExpMax= 5.48D+03 ExpMxC= 8.25D+02 IAcc=1 IRadAn=         1 AccDes= 0.00D+00
 Harris functional with IExCor=  205 and IRadAn=       1 diagonalized for initial guess.
 HarFok:  IExCor=  205 AccDes= 0.00D+00 IRadAn=         1 IDoV= 1 UseB2=F ITyADJ=14
 ICtDFT=  3500011 ScaDFX=  1.000000  1.000000  1.000000  1.000000
 FoFCou: FMM=F IPFlag=           0 FMFlag=      100000 FMFlg1=           0
         NFxFlg=           0 DoJE=T BraDBF=F KetDBF=T FulRan=T
         wScrn=  0.000000 ICntrl=     500 IOpCl=  0 I1Cent=   200000004 NGrid=           0
         NMat0=    1 NMatS0=      1 NMatT0=    0 NMatD0=    1 NMtDS0=    0 NMtDT0=    0
 Symmetry not used in FoFCou.
 Keep R1 ints in memory in canonical form, NReq=24776527.
 Requested convergence on RMS density matrix=1.00D-08 within 128 cycles.
 Requested convergence on MAX density matrix=1.00D-06.
 Requested convergence on             energy=1.00D-06.
 No special actions if energy rises.
 SCF Done:  E(RHF) =  -305.468051070     A.U. after   11 cycles
            NFock= 11  Conv=0.95D-08     -V/T= 2.0012
 Range of M.O.s used for correlation:     1   117
 NBasis=   117 NAE=    25 NBE=    25 NFC=     0 NFV=     0
 NROrb=    117 NOA=    25 NOB=    25 NVA=    92 NVB=    92
 Symmetrizing basis deriv contribution to polar:
 IMax=3 JMax=2 DiffMx= 0.00D+00
 Calling FoFJK, ICntrl=      2147 FMM=F ISym2X=0 I1Cent= 0 IOpClX= 0 NMat=1 NMatS=1 NMatT=0.
 -------------------------------------------------------------------
 Center     Atomic                   Forces (Hartrees/Bohr)
 Number     Number              X              Y              Z
 -------------------------------------------------------------------
      1        6           0.000316494    0.005234784   -0.002550477
      2        6          -0.003890169   -0.000603214    0.002851848
      3        6           0.000832716   -0.026389242   -0.011255367
      4        6           0.000832716    0.026389242   -0.011255367
      5        6          -0.003890169    0.000603214    0.002851848
      6        6           0.000316494   -0.005234784   -0.002550477
      7        1          -0.000038475    0.000276385   -0.000260478
      8        1           0.000619931    0.000467976    0.002735273
      9        1           0.000619931   -0.000467976    0.002735273
     10        1          -0.000038475   -0.000276385   -0.000260478
     11        8           0.004598713    0.000000000    0.017498978
     12        1          -0.000139854    0.001243071   -0.000270289
     13        1          -0.000139854   -0.001243071   -0.000270289
 -------------------------------------------------------------------
 Cartesian Forces:  Max     0.026389242 RMS     0.007355294
 IRC-IRC-IRC-IRC-IRC-IRC-IRC-IRC-IRC-IRC-IRC-IRC-IRC-IRC-IRC-IRC-IRC-IRC
 Pt  3 Step number   1 out of a maximum of  20
 Modified Bulirsch-Stoer Extrapolation Cycles:
    EPS =    0.000010000000000
 Maximum DWI energy   std dev =  0.000020524 at pt    36
 Maximum DWI gradient std dev =  0.026919971 at pt    28
 CORRECTOR INTEGRATION CONVERGENCE:
   Recorrection delta-x convergence threshold:    0.010000
   Delta-x Convergence Met
 Point Number:   3          Path Number:   1
   CHANGE IN THE REACTION COORDINATE =    0.24927
   NET REACTION COORDINATE UP TO THIS POINT =    0.74789
  # OF POINTS ALONG THE PATH =   3
  # OF STEPS =   1

 Calculating another point on the path.
 IRC-IRC-IRC-IRC-IRC-IRC-IRC-IRC-IRC-IRC-IRC-IRC-IRC-IRC-IRC-IRC-IRC-IRC
                          Input orientation:                          
 ---------------------------------------------------------------------
 Center     Atomic      Atomic             Coordinates (Angstroms)
 Number     Number       Type             X           Y           Z
 ---------------------------------------------------------------------
      1          6           0       -1.415983    0.717028    0.130272
      2          6           0       -0.340006    1.433595   -0.250472
      3          6           0        0.963825    0.825267   -0.288253
      4          6           0        0.963825   -0.825267   -0.288253
      5          6           0       -0.340006   -1.433595   -0.250472
      6          6           0       -1.415983   -0.717028    0.130272
      7          1           0       -2.368659    1.206498    0.230024
      8          1           0       -0.448378    2.448280   -0.593104
      9          1           0       -0.448378   -2.448280   -0.593104
     10          1           0       -2.368659   -1.206498    0.230024
     11          8           0        1.318406    0.000000    0.752760
     12          1           0        1.787309   -1.345789   -0.746388
     13          1           0        1.787309    1.345789   -0.746388
 ---------------------------------------------------------------------
                    Distance matrix (angstroms):
                    1          2          3          4          5
     1  C    0.000000
     2  C    1.347650   0.000000
     3  C    2.418753   1.439259   0.000000
     4  C    2.866587   2.608420   1.650533   0.000000
     5  C    2.434722   2.867189   2.608420   1.439259   0.000000
     6  C    1.434056   2.434722   2.866587   2.418753   1.347650
     7  H    1.075697   2.097113   3.394024   3.937275   3.363986
     8  H    2.111106   1.076442   2.172884   3.578178   3.898473
     9  H    3.388024   3.898473   3.578178   2.172884   1.076442
    10  H    2.148836   3.363986   3.937275   3.394024   2.097113
    11  O    2.894564   2.410808   1.374954   1.374954   2.410808
    12  H    3.909582   3.535022   2.366749   1.076549   2.186118
    13  H    3.380083   2.186118   1.076549   2.366749   3.535022
                    6          7          8          9         10
     6  C    0.000000
     7  H    2.148836   0.000000
     8  H    3.388024   2.430440   0.000000
     9  H    2.111106   4.209801   4.896560   0.000000
    10  H    1.075697   2.412997   4.209801   2.430440   0.000000
    11  O    2.894564   3.914503   3.305594   3.305594   3.914503
    12  H    3.380083   4.973895   4.406445   2.497455   4.271400
    13  H    3.909582   4.271400   2.497455   4.406445   4.973895
                   11         12         13
    11  O    0.000000
    12  H    2.068445   0.000000
    13  H    2.068445   2.691579   0.000000
 Symmetry turned off by external request.
 Stoichiometry    C6H6O
 Framework group  CS[SG(O),X(C6H6)]
 Deg. of freedom    17
 Full point group                 CS      NOp   2
 Rotational constants (GHZ):      4.5340554      3.7699589      2.3403325
 Standard basis: 6-31G(d) (6D, 7F)
   117 basis functions,   220 primitive gaussians,   117 cartesian basis functions
    25 alpha electrons       25 beta electrons
       nuclear repulsion energy       283.3884120899 Hartrees.
 NAtoms=   13 NActive=   13 NUniq=   13 SFac= 1.00D+00 NAtFMM=   60 NAOKFM=F Big=F
 Integral buffers will be    131072 words long.
 Raffenetti 1 integral format.
 Two-electron integral symmetry is turned off.
 One-electron integrals computed using PRISM.
 NBasis=   117 RedAO= T EigKep=  6.91D-04  NBF=   117
 NBsUse=   117 1.00D-06 EigRej= -1.00D+00 NBFU=   117
 Initial guess from the checkpoint file:  "/tmp/Gau-20610.chk"
 B after Tr=     0.000183    0.000000    0.000770
         Rot=    1.000000    0.000000   -0.000058    0.000000 Ang=  -0.01 deg.
 ExpMin= 1.61D-01 ExpMax= 5.48D+03 ExpMxC= 8.25D+02 IAcc=1 IRadAn=         1 AccDes= 0.00D+00
 Harris functional with IExCor=  205 and IRadAn=       1 diagonalized for initial guess.
 HarFok:  IExCor=  205 AccDes= 0.00D+00 IRadAn=         1 IDoV= 1 UseB2=F ITyADJ=14
 ICtDFT=  3500011 ScaDFX=  1.000000  1.000000  1.000000  1.000000
 FoFCou: FMM=F IPFlag=           0 FMFlag=      100000 FMFlg1=           0
         NFxFlg=           0 DoJE=T BraDBF=F KetDBF=T FulRan=T
         wScrn=  0.000000 ICntrl=     500 IOpCl=  0 I1Cent=   200000004 NGrid=           0
         NMat0=    1 NMatS0=      1 NMatT0=    0 NMatD0=    1 NMtDS0=    0 NMtDT0=    0
 Symmetry not used in FoFCou.
 Keep R1 ints in memory in canonical form, NReq=24776527.
 Requested convergence on RMS density matrix=1.00D-08 within 128 cycles.
 Requested convergence on MAX density matrix=1.00D-06.
 Requested convergence on             energy=1.00D-06.
 No special actions if energy rises.
 SCF Done:  E(RHF) =  -305.471669823     A.U. after   11 cycles
            NFock= 11  Conv=0.93D-08     -V/T= 2.0012
 Range of M.O.s used for correlation:     1   117
 NBasis=   117 NAE=    25 NBE=    25 NFC=     0 NFV=     0
 NROrb=    117 NOA=    25 NOB=    25 NVA=    92 NVB=    92
 Symmetrizing basis deriv contribution to polar:
 IMax=3 JMax=2 DiffMx= 0.00D+00
 Calling FoFJK, ICntrl=      2147 FMM=F ISym2X=0 I1Cent= 0 IOpClX= 0 NMat=1 NMatS=1 NMatT=0.
 -------------------------------------------------------------------
 Center     Atomic                   Forces (Hartrees/Bohr)
 Number     Number              X              Y              Z
 -------------------------------------------------------------------
      1        6          -0.000394292    0.005341173   -0.003220088
      2        6          -0.003319221   -0.000887393    0.003257826
      3        6           0.000327329   -0.028645486   -0.012467051
      4        6           0.000327329    0.028645486   -0.012467051
      5        6          -0.003319221    0.000887393    0.003257826
      6        6          -0.000394292   -0.005341173   -0.003220088
      7        1          -0.000052517    0.000357844   -0.000107159
      8        1           0.000845684    0.000503135    0.003181798
      9        1           0.000845684   -0.000503135    0.003181798
     10        1          -0.000052517   -0.000357844   -0.000107159
     11        8           0.005527604    0.000000000    0.019632167
     12        1          -0.000170784    0.001504967   -0.000461410
     13        1          -0.000170784   -0.001504967   -0.000461410
 -------------------------------------------------------------------
 Cartesian Forces:  Max     0.028645486 RMS     0.008036132
 IRC-IRC-IRC-IRC-IRC-IRC-IRC-IRC-IRC-IRC-IRC-IRC-IRC-IRC-IRC-IRC-IRC-IRC
 Pt  4 Step number   1 out of a maximum of  20
 Modified Bulirsch-Stoer Extrapolation Cycles:
    EPS =    0.000010000000000
 Maximum DWI energy   std dev =  0.000026744 at pt    71
 Maximum DWI gradient std dev =  0.024139932 at pt    38
 CORRECTOR INTEGRATION CONVERGENCE:
   Recorrection delta-x convergence threshold:    0.010000
   Delta-x Convergence Met
 Point Number:   4          Path Number:   1
   CHANGE IN THE REACTION COORDINATE =    0.24927
   NET REACTION COORDINATE UP TO THIS POINT =    0.99715
  # OF POINTS ALONG THE PATH =   4
  # OF STEPS =   1

 Calculating another point on the path.
 IRC-IRC-IRC-IRC-IRC-IRC-IRC-IRC-IRC-IRC-IRC-IRC-IRC-IRC-IRC-IRC-IRC-IRC
                          Input orientation:                          
 ---------------------------------------------------------------------
 Center     Atomic      Atomic             Coordinates (Angstroms)
 Number     Number       Type             X           Y           Z
 ---------------------------------------------------------------------
      1          6           0       -1.416453    0.720911    0.127704
      2          6           0       -0.342339    1.432563   -0.247859
      3          6           0        0.964067    0.804418   -0.297221
      4          6           0        0.964067   -0.804418   -0.297221
      5          6           0       -0.342339   -1.432563   -0.247859
      6          6           0       -1.416453   -0.720911    0.127704
      7          1           0       -2.369088    1.209913    0.229686
      8          1           0       -0.440625    2.456397   -0.565396
      9          1           0       -0.440625   -2.456397   -0.565396
     10          1           0       -2.369088   -1.209913    0.229686
     11          8           0        1.321528    0.000000    0.763383
     12          1           0        1.785807   -1.331798   -0.751331
     13          1           0        1.785807    1.331798   -0.751331
 ---------------------------------------------------------------------
                    Distance matrix (angstroms):
                    1          2          3          4          5
     1  C    0.000000
     2  C    1.342095   0.000000
     3  C    2.419589   1.450413   0.000000
     4  C    2.859032   2.590988   1.608836   0.000000
     5  C    2.435615   2.865127   2.590988   1.450413   0.000000
     6  C    1.441821   2.435615   2.859032   2.419589   1.342095
     7  H    1.075656   2.094119   3.398820   3.930023   3.364289
     8  H    2.108208   1.076441   2.184974   3.560616   3.903140
     9  H    3.395278   3.903140   3.560616   2.184974   1.076441
    10  H    2.155456   3.364289   3.930023   3.398820   2.094119
    11  O    2.901783   2.417292   1.378313   1.378313   2.417292
    12  H    3.903945   3.524795   2.333429   1.076848   2.189210
    13  H    3.376441   2.189210   1.076848   2.333429   3.524795
                    6          7          8          9         10
     6  C    0.000000
     7  H    2.155456   0.000000
     8  H    3.395278   2.429989   0.000000
     9  H    2.108208   4.218169   4.912793   0.000000
    10  H    1.075656   2.419825   4.218169   2.429989   0.000000
    11  O    2.901783   3.920378   3.302230   3.302230   3.920378
    12  H    3.376441   4.968484   4.397952   2.501258   4.270878
    13  H    3.903945   4.270878   2.501258   4.397952   4.968484
                   11         12         13
    11  O    0.000000
    12  H    2.069686   0.000000
    13  H    2.069686   2.663595   0.000000
 Symmetry turned off by external request.
 Stoichiometry    C6H6O
 Framework group  CS[SG(O),X(C6H6)]
 Deg. of freedom    17
 Full point group                 CS      NOp   2
 Rotational constants (GHZ):      4.5524557      3.7565370      2.3461185
 Standard basis: 6-31G(d) (6D, 7F)
   117 basis functions,   220 primitive gaussians,   117 cartesian basis functions
    25 alpha electrons       25 beta electrons
       nuclear repulsion energy       283.4924527403 Hartrees.
 NAtoms=   13 NActive=   13 NUniq=   13 SFac= 1.00D+00 NAtFMM=   60 NAOKFM=F Big=F
 Integral buffers will be    131072 words long.
 Raffenetti 1 integral format.
 Two-electron integral symmetry is turned off.
 One-electron integrals computed using PRISM.
 NBasis=   117 RedAO= T EigKep=  6.68D-04  NBF=   117
 NBsUse=   117 1.00D-06 EigRej= -1.00D+00 NBFU=   117
 Initial guess from the checkpoint file:  "/tmp/Gau-20610.chk"
 B after Tr=     0.000232    0.000000    0.000852
         Rot=    1.000000    0.000000   -0.000106    0.000000 Ang=  -0.01 deg.
 ExpMin= 1.61D-01 ExpMax= 5.48D+03 ExpMxC= 8.25D+02 IAcc=1 IRadAn=         1 AccDes= 0.00D+00
 Harris functional with IExCor=  205 and IRadAn=       1 diagonalized for initial guess.
 HarFok:  IExCor=  205 AccDes= 0.00D+00 IRadAn=         1 IDoV= 1 UseB2=F ITyADJ=14
 ICtDFT=  3500011 ScaDFX=  1.000000  1.000000  1.000000  1.000000
 FoFCou: FMM=F IPFlag=           0 FMFlag=      100000 FMFlg1=           0
         NFxFlg=           0 DoJE=T BraDBF=F KetDBF=T FulRan=T
         wScrn=  0.000000 ICntrl=     500 IOpCl=  0 I1Cent=   200000004 NGrid=           0
         NMat0=    1 NMatS0=      1 NMatT0=    0 NMatD0=    1 NMtDS0=    0 NMtDT0=    0
 Symmetry not used in FoFCou.
 Keep R1 ints in memory in canonical form, NReq=24776555.
 Requested convergence on RMS density matrix=1.00D-08 within 128 cycles.
 Requested convergence on MAX density matrix=1.00D-06.
 Requested convergence on             energy=1.00D-06.
 No special actions if energy rises.
 SCF Done:  E(RHF) =  -305.475391236     A.U. after   11 cycles
            NFock= 11  Conv=0.89D-08     -V/T= 2.0011
 Range of M.O.s used for correlation:     1   117
 NBasis=   117 NAE=    25 NBE=    25 NFC=     0 NFV=     0
 NROrb=    117 NOA=    25 NOB=    25 NVA=    92 NVB=    92
 Symmetrizing basis deriv contribution to polar:
 IMax=3 JMax=2 DiffMx= 0.00D+00
 Calling FoFJK, ICntrl=      2147 FMM=F ISym2X=0 I1Cent= 0 IOpClX= 0 NMat=1 NMatS=1 NMatT=0.
 -------------------------------------------------------------------
 Center     Atomic                   Forces (Hartrees/Bohr)
 Number     Number              X              Y              Z
 -------------------------------------------------------------------
      1        6          -0.001249608    0.004746240   -0.003775425
      2        6          -0.002179083   -0.001126640    0.003415362
      3        6          -0.000398824   -0.026801649   -0.012085828
      4        6          -0.000398824    0.026801649   -0.012085828
      5        6          -0.002179083    0.001126640    0.003415362
      6        6          -0.001249607   -0.004746240   -0.003775426
      7        1          -0.000049884    0.000410461    0.000102044
      8        1           0.001035380    0.000366993    0.003363515
      9        1           0.001035380   -0.000366993    0.003363515
     10        1          -0.000049884   -0.000410461    0.000102044
     11        8           0.006053549    0.000000000    0.019336236
     12        1          -0.000184756    0.001608856   -0.000687786
     13        1          -0.000184756   -0.001608856   -0.000687786
 -------------------------------------------------------------------
 Cartesian Forces:  Max     0.026801649 RMS     0.007651525
 IRC-IRC-IRC-IRC-IRC-IRC-IRC-IRC-IRC-IRC-IRC-IRC-IRC-IRC-IRC-IRC-IRC-IRC
 Pt  5 Step number   1 out of a maximum of  20
 Modified Bulirsch-Stoer Extrapolation Cycles:
    EPS =    0.000010000000000
 Maximum DWI energy   std dev =  0.000028613 at pt    47
 Maximum DWI gradient std dev =  0.024556396 at pt    29
 CORRECTOR INTEGRATION CONVERGENCE:
   Recorrection delta-x convergence threshold:    0.010000
   Delta-x Convergence Met
 Point Number:   5          Path Number:   1
   CHANGE IN THE REACTION COORDINATE =    0.24924
   NET REACTION COORDINATE UP TO THIS POINT =    1.24640
  # OF POINTS ALONG THE PATH =   5
  # OF STEPS =   1

 Calculating another point on the path.
 IRC-IRC-IRC-IRC-IRC-IRC-IRC-IRC-IRC-IRC-IRC-IRC-IRC-IRC-IRC-IRC-IRC-IRC
                          Input orientation:                          
 ---------------------------------------------------------------------
 Center     Atomic      Atomic             Coordinates (Angstroms)
 Number     Number       Type             X           Y           Z
 ---------------------------------------------------------------------
      1          6           0       -1.417722    0.724369    0.124510
      2          6           0       -0.343804    1.431263   -0.244953
      3          6           0        0.963776    0.784357   -0.306140
      4          6           0        0.963776   -0.784357   -0.306140
      5          6           0       -0.343804   -1.431263   -0.244953
      6          6           0       -1.417722   -0.724369    0.124510
      7          1           0       -2.369447    1.214099    0.231237
      8          1           0       -0.430732    2.464551   -0.534247
      9          1           0       -0.430732   -2.464551   -0.534247
     10          1           0       -2.369447   -1.214099    0.231237
     11          8           0        1.325148    0.000000    0.774103
     12          1           0        1.783726   -1.315870   -0.758861
     13          1           0        1.783726    1.315870   -0.758861
 ---------------------------------------------------------------------
                    Distance matrix (angstroms):
                    1          2          3          4          5
     1  C    0.000000
     2  C    1.337723   0.000000
     3  C    2.420866   1.460136   0.000000
     4  C    2.851885   2.573418   1.568714   0.000000
     5  C    2.436504   2.862526   2.573418   1.460136   0.000000
     6  C    1.448738   2.436504   2.851885   2.420866   1.337723
     7  H    1.075643   2.092163   3.403502   3.923388   3.365699
     8  H    2.106262   1.076536   2.195390   3.542893   3.907507
     9  H    3.402546   3.907507   3.542893   2.195390   1.076536
    10  H    2.162136   3.365699   3.923388   3.403502   2.092163
    11  O    2.910329   2.423302   1.383015   1.383015   2.423302
    12  H    3.897716   3.512439   2.299615   1.076931   2.191758
    13  H    3.373350   2.191758   1.076931   2.299615   3.512439
                    6          7          8          9         10
     6  C    0.000000
     7  H    2.162136   0.000000
     8  H    3.402546   2.430681   0.000000
     9  H    2.106262   4.228125   4.929101   0.000000
    10  H    1.075643   2.428199   4.228125   2.430681   0.000000
    11  O    2.910329   3.926674   3.296802   3.296802   3.926674
    12  H    3.373350   4.962851   4.387010   2.504745   4.270773
    13  H    3.897716   4.270773   2.504745   4.387010   4.962851
                   11         12         13
    11  O    0.000000
    12  H    2.071663   0.000000
    13  H    2.071663   2.631740   0.000000
 Symmetry turned off by external request.
 Stoichiometry    C6H6O
 Framework group  CS[SG(O),X(C6H6)]
 Deg. of freedom    17
 Full point group                 CS      NOp   2
 Rotational constants (GHZ):      4.5701522      3.7421930      2.3514728
 Standard basis: 6-31G(d) (6D, 7F)
   117 basis functions,   220 primitive gaussians,   117 cartesian basis functions
    25 alpha electrons       25 beta electrons
       nuclear repulsion energy       283.5763909811 Hartrees.
 NAtoms=   13 NActive=   13 NUniq=   13 SFac= 1.00D+00 NAtFMM=   60 NAOKFM=F Big=F
 Integral buffers will be    131072 words long.
 Raffenetti 1 integral format.
 Two-electron integral symmetry is turned off.
 One-electron integrals computed using PRISM.
 NBasis=   117 RedAO= T EigKep=  6.47D-04  NBF=   117
 NBsUse=   117 1.00D-06 EigRej= -1.00D+00 NBFU=   117
 Initial guess from the checkpoint file:  "/tmp/Gau-20610.chk"
 B after Tr=     0.000299    0.000000    0.000955
         Rot=    1.000000    0.000000   -0.000170    0.000000 Ang=  -0.02 deg.
 ExpMin= 1.61D-01 ExpMax= 5.48D+03 ExpMxC= 8.25D+02 IAcc=1 IRadAn=         1 AccDes= 0.00D+00
 Harris functional with IExCor=  205 and IRadAn=       1 diagonalized for initial guess.
 HarFok:  IExCor=  205 AccDes= 0.00D+00 IRadAn=         1 IDoV= 1 UseB2=F ITyADJ=14
 ICtDFT=  3500011 ScaDFX=  1.000000  1.000000  1.000000  1.000000
 FoFCou: FMM=F IPFlag=           0 FMFlag=      100000 FMFlg1=           0
         NFxFlg=           0 DoJE=T BraDBF=F KetDBF=T FulRan=T
         wScrn=  0.000000 ICntrl=     500 IOpCl=  0 I1Cent=   200000004 NGrid=           0
         NMat0=    1 NMatS0=      1 NMatT0=    0 NMatD0=    1 NMtDS0=    0 NMtDT0=    0
 Symmetry not used in FoFCou.
 Keep R1 ints in memory in canonical form, NReq=24776583.
 Requested convergence on RMS density matrix=1.00D-08 within 128 cycles.
 Requested convergence on MAX density matrix=1.00D-06.
 Requested convergence on             energy=1.00D-06.
 No special actions if energy rises.
 SCF Done:  E(RHF) =  -305.478756042     A.U. after   11 cycles
            NFock= 11  Conv=0.82D-08     -V/T= 2.0011
 Range of M.O.s used for correlation:     1   117
 NBasis=   117 NAE=    25 NBE=    25 NFC=     0 NFV=     0
 NROrb=    117 NOA=    25 NOB=    25 NVA=    92 NVB=    92
 Symmetrizing basis deriv contribution to polar:
 IMax=3 JMax=2 DiffMx= 0.00D+00
 Calling FoFJK, ICntrl=      2147 FMM=F ISym2X=0 I1Cent= 0 IOpClX= 0 NMat=1 NMatS=1 NMatT=0.
 -------------------------------------------------------------------
 Center     Atomic                   Forces (Hartrees/Bohr)
 Number     Number              X              Y              Z
 -------------------------------------------------------------------
      1        6          -0.002003687    0.003689022   -0.004202148
      2        6          -0.000887980   -0.001207425    0.003439027
      3        6          -0.001156967   -0.021170581   -0.010211576
      4        6          -0.001156967    0.021170581   -0.010211576
      5        6          -0.000887980    0.001207425    0.003439027
      6        6          -0.002003687   -0.003689022   -0.004202148
      7        1          -0.000024301    0.000415438    0.000296954
      8        1           0.001129973    0.000053988    0.003271805
      9        1           0.001129973   -0.000053988    0.003271805
     10        1          -0.000024301   -0.000415438    0.000296954
     11        8           0.006200405    0.000000000    0.016566896
     12        1          -0.000157241    0.001474644   -0.000877510
     13        1          -0.000157241   -0.001474644   -0.000877510
 -------------------------------------------------------------------
 Cartesian Forces:  Max     0.021170581 RMS     0.006303568
 IRC-IRC-IRC-IRC-IRC-IRC-IRC-IRC-IRC-IRC-IRC-IRC-IRC-IRC-IRC-IRC-IRC-IRC
 Pt  6 Step number   1 out of a maximum of  20
 Modified Bulirsch-Stoer Extrapolation Cycles:
    EPS =    0.000010000000000
 Maximum DWI energy   std dev =  0.000027707 at pt    47
 Maximum DWI gradient std dev =  0.031225952 at pt    29
 CORRECTOR INTEGRATION CONVERGENCE:
   Recorrection delta-x convergence threshold:    0.010000
   Delta-x Convergence Met
 Point Number:   6          Path Number:   1
   CHANGE IN THE REACTION COORDINATE =    0.24915
   NET REACTION COORDINATE UP TO THIS POINT =    1.49555
  # OF POINTS ALONG THE PATH =   6
  # OF STEPS =   1

 Calculating another point on the path.
 IRC-IRC-IRC-IRC-IRC-IRC-IRC-IRC-IRC-IRC-IRC-IRC-IRC-IRC-IRC-IRC-IRC-IRC
                          Input orientation:                          
 ---------------------------------------------------------------------
 Center     Atomic      Atomic             Coordinates (Angstroms)
 Number     Number       Type             X           Y           Z
 ---------------------------------------------------------------------
      1          6           0       -1.420075    0.727347    0.120137
      2          6           0       -0.344337    1.429587   -0.241306
      3          6           0        0.962837    0.766014   -0.314816
      4          6           0        0.962837   -0.766014   -0.314816
      5          6           0       -0.344337   -1.429587   -0.241306
      6          6           0       -1.420075   -0.727347    0.120137
      7          1           0       -2.369689    1.219415    0.234933
      8          1           0       -0.418008    2.472998   -0.497302
      9          1           0       -0.418008   -2.472998   -0.497302
     10          1           0       -2.369689   -1.219415    0.234933
     11          8           0        1.329690    0.000000    0.784569
     12          1           0        1.780879   -1.297921   -0.770026
     13          1           0        1.780879    1.297921   -0.770026
 ---------------------------------------------------------------------
                    Distance matrix (angstroms):
                    1          2          3          4          5
     1  C    0.000000
     2  C    1.334539   0.000000
     3  C    2.422590   1.467799   0.000000
     4  C    2.845624   2.556320   1.532029   0.000000
     5  C    2.437256   2.859174   2.556320   1.467799   0.000000
     6  C    1.454693   2.437256   2.845624   2.422590   1.334539
     7  H    1.075675   2.091179   3.407862   3.917892   3.368392
     8  H    2.105390   1.076878   2.203140   3.525795   3.911666
     9  H    3.409923   3.911666   3.525795   2.203140   1.076878
    10  H    2.169061   3.368392   3.917892   3.407862   2.091179
    11  O    2.920909   2.428684   1.389247   1.389247   2.428684
    12  H    3.891041   3.497912   2.266327   1.076724   2.193951
    13  H    3.371060   2.193951   1.076724   2.266327   3.497912
                    6          7          8          9         10
     6  C    0.000000
     7  H    2.169061   0.000000
     8  H    3.409923   2.432426   0.000000
     9  H    2.105390   4.240181   4.945996   0.000000
    10  H    1.075675   2.438829   4.240181   2.432426   0.000000
    11  O    2.920909   3.933761   3.288367   3.288367   3.933761
    12  H    3.371060   4.957230   4.373707   2.508045   4.271220
    13  H    3.891041   4.271220   2.508045   4.373707   4.957230
                   11         12         13
    11  O    0.000000
    12  H    2.074834   0.000000
    13  H    2.074834   2.595842   0.000000
 Symmetry turned off by external request.
 Stoichiometry    C6H6O
 Framework group  CS[SG(O),X(C6H6)]
 Deg. of freedom    17
 Full point group                 CS      NOp   2
 Rotational constants (GHZ):      4.5868532      3.7266958      2.3557728
 Standard basis: 6-31G(d) (6D, 7F)
   117 basis functions,   220 primitive gaussians,   117 cartesian basis functions
    25 alpha electrons       25 beta electrons
       nuclear repulsion energy       283.6208581726 Hartrees.
 NAtoms=   13 NActive=   13 NUniq=   13 SFac= 1.00D+00 NAtFMM=   60 NAOKFM=F Big=F
 Integral buffers will be    131072 words long.
 Raffenetti 1 integral format.
 Two-electron integral symmetry is turned off.
 One-electron integrals computed using PRISM.
 NBasis=   117 RedAO= T EigKep=  6.28D-04  NBF=   117
 NBsUse=   117 1.00D-06 EigRej= -1.00D+00 NBFU=   117
 Initial guess from the checkpoint file:  "/tmp/Gau-20610.chk"
 B after Tr=     0.000387    0.000000    0.001109
         Rot=    1.000000    0.000000   -0.000252    0.000000 Ang=  -0.03 deg.
 ExpMin= 1.61D-01 ExpMax= 5.48D+03 ExpMxC= 8.25D+02 IAcc=1 IRadAn=         1 AccDes= 0.00D+00
 Harris functional with IExCor=  205 and IRadAn=       1 diagonalized for initial guess.
 HarFok:  IExCor=  205 AccDes= 0.00D+00 IRadAn=         1 IDoV= 1 UseB2=F ITyADJ=14
 ICtDFT=  3500011 ScaDFX=  1.000000  1.000000  1.000000  1.000000
 FoFCou: FMM=F IPFlag=           0 FMFlag=      100000 FMFlg1=           0
         NFxFlg=           0 DoJE=T BraDBF=F KetDBF=T FulRan=T
         wScrn=  0.000000 ICntrl=     500 IOpCl=  0 I1Cent=   200000004 NGrid=           0
         NMat0=    1 NMatS0=      1 NMatT0=    0 NMatD0=    1 NMtDS0=    0 NMtDT0=    0
 Symmetry not used in FoFCou.
 Keep R1 ints in memory in canonical form, NReq=24776583.
 Requested convergence on RMS density matrix=1.00D-08 within 128 cycles.
 Requested convergence on MAX density matrix=1.00D-06.
 Requested convergence on             energy=1.00D-06.
 No special actions if energy rises.
 SCF Done:  E(RHF) =  -305.481379515     A.U. after   11 cycles
            NFock= 11  Conv=0.52D-08     -V/T= 2.0011
 Range of M.O.s used for correlation:     1   117
 NBasis=   117 NAE=    25 NBE=    25 NFC=     0 NFV=     0
 NROrb=    117 NOA=    25 NOB=    25 NVA=    92 NVB=    92
 Symmetrizing basis deriv contribution to polar:
 IMax=3 JMax=2 DiffMx= 0.00D+00
 Calling FoFJK, ICntrl=      2147 FMM=F ISym2X=0 I1Cent= 0 IOpClX= 0 NMat=1 NMatS=1 NMatT=0.
 -------------------------------------------------------------------
 Center     Atomic                   Forces (Hartrees/Bohr)
 Number     Number              X              Y              Z
 -------------------------------------------------------------------
      1        6          -0.002370004    0.002490292   -0.004464983
      2        6           0.000042371   -0.000824846    0.003488543
      3        6          -0.001673904   -0.012952164   -0.007104158
      4        6          -0.001673904    0.012952164   -0.007104158
      5        6           0.000042371    0.000824846    0.003488543
      6        6          -0.002370004   -0.002490292   -0.004464983
      7        1           0.000026189    0.000335730    0.000397787
      8        1           0.001045142   -0.000517064    0.002877477
      9        1           0.001045142    0.000517064    0.002877477
     10        1           0.000026189   -0.000335730    0.000397787
     11        8           0.006007258    0.000000000    0.011436411
     12        1          -0.000073423    0.000993819   -0.000912871
     13        1          -0.000073424   -0.000993819   -0.000912871
 -------------------------------------------------------------------
 Cartesian Forces:  Max     0.012952164 RMS     0.004301539
 IRC-IRC-IRC-IRC-IRC-IRC-IRC-IRC-IRC-IRC-IRC-IRC-IRC-IRC-IRC-IRC-IRC-IRC
 Pt  7 Step number   1 out of a maximum of  20
 Modified Bulirsch-Stoer Extrapolation Cycles:
    EPS =    0.000010000000000
 Maximum DWI energy   std dev =  0.000023784 at pt    47
 Maximum DWI gradient std dev =  0.055360232 at pt    39
 CORRECTOR INTEGRATION CONVERGENCE:
   Recorrection delta-x convergence threshold:    0.010000
   Delta-x Convergence NOT Met
 IRC-IRC-IRC-IRC-IRC-IRC-IRC-IRC-IRC-IRC-IRC-IRC-IRC-IRC-IRC-IRC-IRC-IRC
                          Input orientation:                          
 ---------------------------------------------------------------------
 Center     Atomic      Atomic             Coordinates (Angstroms)
 Number     Number       Type             X           Y           Z
 ---------------------------------------------------------------------
      1          6           0       -1.420097    0.727426    0.119957
      2          6           0       -0.344289    1.429465   -0.241062
      3          6           0        0.962626    0.766068   -0.315090
      4          6           0        0.962626   -0.766068   -0.315090
      5          6           0       -0.344289   -1.429465   -0.241062
      6          6           0       -1.420097   -0.727426    0.119957
      7          1           0       -2.369660    1.219280    0.235448
      8          1           0       -0.418127    2.470734   -0.498895
      9          1           0       -0.418127   -2.470734   -0.498895
     10          1           0       -2.369660   -1.219280    0.235448
     11          8           0        1.329986    0.000000    0.784967
     12          1           0        1.780774   -1.298967   -0.769828
     13          1           0        1.780774    1.298967   -0.769828
 ---------------------------------------------------------------------
                    Distance matrix (angstroms):
                    1          2          3          4          5
     1  C    0.000000
     2  C    1.334375   0.000000
     3  C    2.422422   1.467516   0.000000
     4  C    2.845551   2.556144   1.532135   0.000000
     5  C    2.437187   2.858931   2.556144   1.467516   0.000000
     6  C    1.454852   2.437187   2.845551   2.422422   1.334375
     7  H    1.075606   2.091260   3.407730   3.917758   3.368240
     8  H    2.103817   1.075254   2.201398   3.523798   3.909410
     9  H    3.408101   3.909410   3.523798   2.201398   1.075254
    10  H    2.169025   3.368240   3.917758   3.407730   2.091260
    11  O    2.921361   2.428848   1.389942   1.389942   2.428848
    12  H    3.891473   3.498547   2.267272   1.077096   2.193745
    13  H    3.371047   2.193745   1.077096   2.267272   3.498547
                    6          7          8          9         10
     6  C    0.000000
     7  H    2.169025   0.000000
     8  H    3.408101   2.431847   0.000000
     9  H    2.103817   4.238389   4.941469   0.000000
    10  H    1.075606   2.438559   4.238389   2.431847   0.000000
    11  O    2.921361   3.933955   3.287663   3.287663   3.933955
    12  H    3.371047   4.957646   4.372553   2.506314   4.271187
    13  H    3.891473   4.271187   2.506314   4.372553   4.957646
                   11         12         13
    11  O    0.000000
    12  H    2.075551   0.000000
    13  H    2.075551   2.597934   0.000000
 Symmetry turned off by external request.
 Stoichiometry    C6H6O
 Framework group  CS[SG(O),X(C6H6)]
 Deg. of freedom    17
 Full point group                 CS      NOp   2
 Rotational constants (GHZ):      4.5872222      3.7262515      2.3559672
 Standard basis: 6-31G(d) (6D, 7F)
   117 basis functions,   220 primitive gaussians,   117 cartesian basis functions
    25 alpha electrons       25 beta electrons
       nuclear repulsion energy       283.6211801322 Hartrees.
 NAtoms=   13 NActive=   13 NUniq=   13 SFac= 1.00D+00 NAtFMM=   60 NAOKFM=F Big=F
 Integral buffers will be    131072 words long.
 Raffenetti 1 integral format.
 Two-electron integral symmetry is turned off.
 One-electron integrals computed using PRISM.
 NBasis=   117 RedAO= T EigKep=  6.25D-04  NBF=   117
 NBsUse=   117 1.00D-06 EigRej= -1.00D+00 NBFU=   117
 Initial guess from the checkpoint file:  "/tmp/Gau-20610.chk"
 B after Tr=    -0.000009    0.000000   -0.000041
         Rot=    1.000000    0.000000    0.000000    0.000000 Ang=   0.00 deg.
 ExpMin= 1.61D-01 ExpMax= 5.48D+03 ExpMxC= 8.25D+02 IAcc=1 IRadAn=         1 AccDes= 0.00D+00
 Harris functional with IExCor=  205 and IRadAn=       1 diagonalized for initial guess.
 HarFok:  IExCor=  205 AccDes= 0.00D+00 IRadAn=         1 IDoV= 1 UseB2=F ITyADJ=14
 ICtDFT=  3500011 ScaDFX=  1.000000  1.000000  1.000000  1.000000
 FoFCou: FMM=F IPFlag=           0 FMFlag=      100000 FMFlg1=           0
         NFxFlg=           0 DoJE=T BraDBF=F KetDBF=T FulRan=T
         wScrn=  0.000000 ICntrl=     500 IOpCl=  0 I1Cent=   200000004 NGrid=           0
         NMat0=    1 NMatS0=      1 NMatT0=    0 NMatD0=    1 NMtDS0=    0 NMtDT0=    0
 Symmetry not used in FoFCou.
 Keep R1 ints in memory in canonical form, NReq=24776583.
 Requested convergence on RMS density matrix=1.00D-08 within 128 cycles.
 Requested convergence on MAX density matrix=1.00D-06.
 Requested convergence on             energy=1.00D-06.
 No special actions if energy rises.
 SCF Done:  E(RHF) =  -305.481381870     A.U. after    9 cycles
            NFock=  9  Conv=0.45D-08     -V/T= 2.0011
 Range of M.O.s used for correlation:     1   117
 NBasis=   117 NAE=    25 NBE=    25 NFC=     0 NFV=     0
 NROrb=    117 NOA=    25 NOB=    25 NVA=    92 NVB=    92
 Symmetrizing basis deriv contribution to polar:
 IMax=3 JMax=2 DiffMx= 0.00D+00
 Calling FoFJK, ICntrl=      2147 FMM=F ISym2X=0 I1Cent= 0 IOpClX= 0 NMat=1 NMatS=1 NMatT=0.
 -------------------------------------------------------------------
 Center     Atomic                   Forces (Hartrees/Bohr)
 Number     Number              X              Y              Z
 -------------------------------------------------------------------
      1        6          -0.002450431    0.002144782   -0.004227988
      2        6           0.000081222   -0.001778619    0.003434235
      3        6          -0.001201583   -0.013125749   -0.006740489
      4        6          -0.001201583    0.013125749   -0.006740489
      5        6           0.000081222    0.001778619    0.003434235
      6        6          -0.002450431   -0.002144782   -0.004227988
      7        1          -0.000014268    0.000389852    0.000319689
      8        1           0.000975973    0.000718887    0.002720637
      9        1           0.000975973   -0.000718887    0.002720637
     10        1          -0.000014268   -0.000389852    0.000319689
     11        8           0.005749415    0.000000000    0.010669713
     12        1          -0.000265620    0.001212679   -0.000840939
     13        1          -0.000265620   -0.001212679   -0.000840939
 -------------------------------------------------------------------
 Cartesian Forces:  Max     0.013125749 RMS     0.004221016
 IRC-IRC-IRC-IRC-IRC-IRC-IRC-IRC-IRC-IRC-IRC-IRC-IRC-IRC-IRC-IRC-IRC-IRC
 Error in corrector energy =          -0.0000020867
 Magnitude of corrector gradient =     0.0270286549
 Magnitude of analytic gradient =      0.0263602386
 Magnitude of difference =             0.0012042575
 Angle between gradients (degrees)=    2.1504
 Pt  7 Step number   2 out of a maximum of  20
 Modified Bulirsch-Stoer Extrapolation Cycles:
    EPS =    0.000010000000000
[...]
     6  C    0.000000
     7  H    2.176000   0.000000
     8  H    3.413811   2.433119   0.000000
     9  H    2.102025   4.250250   4.955664   0.000000
    10  H    1.075584   2.450641   4.250250   2.433119   0.000000
    11  O    2.934948   3.942454   3.274918   3.274918   3.942454
    12  H    3.369108   4.953221   4.359532   2.507292   4.271379
    13  H    3.885645   4.271379   2.507292   4.359532   4.953221
                   11         12         13
    11  O    0.000000
    12  H    2.080337   0.000000
    13  H    2.080337   2.566560   0.000000
 Symmetry turned off by external request.
 Stoichiometry    C6H6O
 Framework group  CS[SG(O),X(C6H6)]
 Deg. of freedom    17
 Full point group                 CS      NOp   2
 Rotational constants (GHZ):      4.6032074      3.7101451      2.3578409
 Standard basis: 6-31G(d) (6D, 7F)
   117 basis functions,   220 primitive gaussians,   117 cartesian basis functions
    25 alpha electrons       25 beta electrons
       nuclear repulsion energy       283.6270257210 Hartrees.
 NAtoms=   13 NActive=   13 NUniq=   13 SFac= 1.00D+00 NAtFMM=   60 NAOKFM=F Big=F
 Integral buffers will be    131072 words long.
 Raffenetti 1 integral format.
 Two-electron integral symmetry is turned off.
 One-electron integrals computed using PRISM.
 NBasis=   117 RedAO= T EigKep=  6.07D-04  NBF=   117
 NBsUse=   117 1.00D-06 EigRej= -1.00D+00 NBFU=   117
 Initial guess from the checkpoint file:  "/tmp/Gau-20610.chk"
 B after Tr=    -0.000208    0.000000   -0.000592
         Rot=    1.000000    0.000000    0.000084    0.000000 Ang=   0.01 deg.
 ExpMin= 1.61D-01 ExpMax= 5.48D+03 ExpMxC= 8.25D+02 IAcc=1 IRadAn=         1 AccDes= 0.00D+00
 Harris functional with IExCor=  205 and IRadAn=       1 diagonalized for initial guess.
 HarFok:  IExCor=  205 AccDes= 0.00D+00 IRadAn=         1 IDoV= 1 UseB2=F ITyADJ=14
 ICtDFT=  3500011 ScaDFX=  1.000000  1.000000  1.000000  1.000000
 FoFCou: FMM=F IPFlag=           0 FMFlag=      100000 FMFlg1=           0
         NFxFlg=           0 DoJE=T BraDBF=F KetDBF=T FulRan=T
         wScrn=  0.000000 ICntrl=     500 IOpCl=  0 I1Cent=   200000004 NGrid=           0
         NMat0=    1 NMatS0=      1 NMatT0=    0 NMatD0=    1 NMtDS0=    0 NMtDT0=    0
 Symmetry not used in FoFCou.
 Keep R1 ints in memory in canonical form, NReq=24776716.
 Requested convergence on RMS density matrix=1.00D-08 within 128 cycles.
 Requested convergence on MAX density matrix=1.00D-06.
 Requested convergence on             energy=1.00D-06.
 No special actions if energy rises.
 SCF Done:  E(RHF) =  -305.483047576     A.U. after   10 cycles
            NFock= 10  Conv=0.62D-08     -V/T= 2.0010
 Range of M.O.s used for correlation:     1   117
 NBasis=   117 NAE=    25 NBE=    25 NFC=     0 NFV=     0
 NROrb=    117 NOA=    25 NOB=    25 NVA=    92 NVB=    92
 Symmetrizing basis deriv contribution to polar:
 IMax=3 JMax=2 DiffMx= 0.00D+00
 Calling FoFJK, ICntrl=      2147 FMM=F ISym2X=0 I1Cent= 0 IOpClX= 0 NMat=1 NMatS=1 NMatT=0.
 -------------------------------------------------------------------
 Center     Atomic                   Forces (Hartrees/Bohr)
 Number     Number              X              Y              Z
 -------------------------------------------------------------------
      1        6          -0.002950260    0.000339577   -0.003815796
      2        6           0.001160649   -0.001451168    0.003327100
      3        6          -0.001091483   -0.003918372   -0.003318542
      4        6          -0.001091483    0.003918372   -0.003318542
      5        6           0.001160649    0.001451168    0.003327100
      6        6          -0.002950260   -0.000339577   -0.003815796
      7        1          -0.000032653    0.000277406    0.000190797
      8        1           0.000666439    0.000955427    0.001943195
      9        1           0.000666439   -0.000955427    0.001943195
     10        1          -0.000032653   -0.000277406    0.000190797
     11        8           0.005294546    0.000000000    0.004478691
     12        1          -0.000399966    0.000877835   -0.000566100
     13        1          -0.000399966   -0.000877835   -0.000566100
 -------------------------------------------------------------------
 Cartesian Forces:  Max     0.005294546 RMS     0.002218845
 IRC-IRC-IRC-IRC-IRC-IRC-IRC-IRC-IRC-IRC-IRC-IRC-IRC-IRC-IRC-IRC-IRC-IRC
 Error in corrector energy =          -0.0000584864
 Magnitude of corrector gradient =     0.0176232200
 Magnitude of analytic gradient =      0.0138566830
 Magnitude of difference =             0.0072325654
 Angle between gradients (degrees)=   22.7883
 Pt  8 Step number  18 out of a maximum of  20
 Modified Bulirsch-Stoer Extrapolation Cycles:
    EPS =    0.000010000000000
 Maximum DWI energy   std dev =  0.000030039 at pt    -1
 Maximum DWI gradient std dev =  0.118962667 at pt    60
 CORRECTOR INTEGRATION CONVERGENCE:
   Recorrection delta-x convergence threshold:    0.010000
   Delta-x Convergence NOT Met
 IRC-IRC-IRC-IRC-IRC-IRC-IRC-IRC-IRC-IRC-IRC-IRC-IRC-IRC-IRC-IRC-IRC-IRC
                          Input orientation:                          
 ---------------------------------------------------------------------
 Center     Atomic      Atomic             Coordinates (Angstroms)
 Number     Number       Type             X           Y           Z
 ---------------------------------------------------------------------
      1          6           0       -1.424293    0.729311    0.113331
      2          6           0       -0.343286    1.427783   -0.235447
      3          6           0        0.960766    0.754020   -0.321874
      4          6           0        0.960766   -0.754020   -0.321874
      5          6           0       -0.343286   -1.427783   -0.235447
      6          6           0       -1.424293   -0.729311    0.113331
      7          1           0       -2.369627    1.226189    0.241689
      8          1           0       -0.400510    2.482348   -0.445177
      9          1           0       -0.400510   -2.482348   -0.445177
     10          1           0       -2.369627   -1.226189    0.241689
     11          8           0        1.336174    0.000000    0.792470
     12          1           0        1.776772   -1.279864   -0.786370
     13          1           0        1.776772    1.279864   -0.786370
 ---------------------------------------------------------------------
                    Distance matrix (angstroms):
                    1          2          3          4          5
     1  C    0.000000
     2  C    1.333449   0.000000
     3  C    2.424566   1.470367   0.000000
     4  C    2.842214   2.543283   1.508040   0.000000
     5  C    2.437884   2.855566   2.543283   1.470367   0.000000
     6  C    1.458623   2.437884   2.842214   2.424566   1.333449
     7  H    1.075649   2.091497   3.410582   3.915399   3.373023
     8  H    2.105517   1.076740   2.203496   3.513169   3.916170
     9  H    3.416844   3.916170   3.513169   2.203496   1.076740
    10  H    2.175802   3.373023   3.915399   3.410582   2.091497
    11  O    2.934842   2.432234   1.396868   1.396868   2.432234
    12  H    3.884979   3.482746   2.240158   1.076166   2.195459
    13  H    3.370369   2.195459   1.076166   2.240158   3.482746
                    6          7          8          9         10
     6  C    0.000000
     7  H    2.175802   0.000000
     8  H    3.416844   2.434573   0.000000
     9  H    2.105517   4.254698   4.964697   0.000000
    10  H    1.075649   2.452377   4.254698   2.434573   0.000000
    11  O    2.934842   3.942063   3.272598   3.272598   3.942063
    12  H    3.370369   4.952760   4.360185   2.510565   4.272284
    13  H    3.884979   4.272284   2.510565   4.360185   4.952760
                   11         12         13
    11  O    0.000000
    12  H    2.079643   0.000000
    13  H    2.079643   2.559729   0.000000
 Symmetry turned off by external request.
 Stoichiometry    C6H6O
 Framework group  CS[SG(O),X(C6H6)]
 Deg. of freedom    17
 Full point group                 CS      NOp   2
 Rotational constants (GHZ):      4.5997086      3.7115521      2.3564098
 Standard basis: 6-31G(d) (6D, 7F)
   117 basis functions,   220 primitive gaussians,   117 cartesian basis functions
    25 alpha electrons       25 beta electrons
       nuclear repulsion energy       283.5649068912 Hartrees.
 NAtoms=   13 NActive=   13 NUniq=   13 SFac= 1.00D+00 NAtFMM=   60 NAOKFM=F Big=F
 Integral buffers will be    131072 words long.
 Raffenetti 1 integral format.
 Two-electron integral symmetry is turned off.
 One-electron integrals computed using PRISM.
 NBasis=   117 RedAO= T EigKep=  6.16D-04  NBF=   117
 NBsUse=   117 1.00D-06 EigRej= -1.00D+00 NBFU=   117
 Initial guess from the checkpoint file:  "/tmp/Gau-20610.chk"
 B after Tr=     0.000208    0.000000    0.000592
         Rot=    1.000000    0.000000   -0.000084    0.000000 Ang=  -0.01 deg.
 ExpMin= 1.61D-01 ExpMax= 5.48D+03 ExpMxC= 8.25D+02 IAcc=1 IRadAn=         1 AccDes= 0.00D+00
 Harris functional with IExCor=  205 and IRadAn=       1 diagonalized for initial guess.
 HarFok:  IExCor=  205 AccDes= 0.00D+00 IRadAn=         1 IDoV= 1 UseB2=F ITyADJ=14
 ICtDFT=  3500011 ScaDFX=  1.000000  1.000000  1.000000  1.000000
 FoFCou: FMM=F IPFlag=           0 FMFlag=      100000 FMFlg1=           0
         NFxFlg=           0 DoJE=T BraDBF=F KetDBF=T FulRan=T
         wScrn=  0.000000 ICntrl=     500 IOpCl=  0 I1Cent=   200000004 NGrid=           0
         NMat0=    1 NMatS0=      1 NMatT0=    0 NMatD0=    1 NMtDS0=    0 NMtDT0=    0
 Symmetry not used in FoFCou.
 Keep R1 ints in memory in canonical form, NReq=24776686.
 Requested convergence on RMS density matrix=1.00D-08 within 128 cycles.
 Requested convergence on MAX density matrix=1.00D-06.
 Requested convergence on             energy=1.00D-06.
 No special actions if energy rises.
 SCF Done:  E(RHF) =  -305.483031791     A.U. after   10 cycles
            NFock= 10  Conv=0.64D-08     -V/T= 2.0011
 Range of M.O.s used for correlation:     1   117
 NBasis=   117 NAE=    25 NBE=    25 NFC=     0 NFV=     0
 NROrb=    117 NOA=    25 NOB=    25 NVA=    92 NVB=    92
 Symmetrizing basis deriv contribution to polar:
 IMax=3 JMax=2 DiffMx= 0.00D+00
 Calling FoFJK, ICntrl=      2147 FMM=F ISym2X=0 I1Cent= 0 IOpClX= 0 NMat=1 NMatS=1 NMatT=0.
 -------------------------------------------------------------------
 Center     Atomic                   Forces (Hartrees/Bohr)
 Number     Number              X              Y              Z
 -------------------------------------------------------------------
      1        6          -0.001342073    0.001944389   -0.004590385
      2        6          -0.001129657    0.000117276    0.004474296
      3        6          -0.000767778   -0.008456483   -0.003505062
      4        6          -0.000767778    0.008456483   -0.003505062
      5        6          -0.001129657   -0.000117276    0.004474296
      6        6          -0.001342073   -0.001944389   -0.004590385
      7        1           0.000019664    0.000169422    0.000286040
      8        1           0.000453357   -0.000802067    0.001660752
      9        1           0.000453357    0.000802067    0.001660752
     10        1           0.000019664   -0.000169422    0.000286040
     11        8           0.005443775    0.000000000    0.004451497
     12        1           0.000044598   -0.000019084   -0.000551390
     13        1           0.000044598    0.000019083   -0.000551390
 -------------------------------------------------------------------
 Cartesian Forces:  Max     0.008456483 RMS     0.002874282
 IRC-IRC-IRC-IRC-IRC-IRC-IRC-IRC-IRC-IRC-IRC-IRC-IRC-IRC-IRC-IRC-IRC-IRC
 Error in corrector energy =          -0.0000875855
 Magnitude of corrector gradient =     0.0133954229
 Magnitude of analytic gradient =      0.0179498845
 Magnitude of difference =             0.0093882125
 Angle between gradients (degrees)=   30.6999
 Pt  8 Step number  19 out of a maximum of  20
 Modified Bulirsch-Stoer Extrapolation Cycles:
    EPS =    0.000010000000000
 Maximum DWI energy   std dev =  0.000023742 at pt    30
 Maximum DWI gradient std dev =  0.205682520 at pt    30
 CORRECTOR INTEGRATION CONVERGENCE:
   Recorrection delta-x convergence threshold:    0.010000
   Delta-x Convergence NOT Met
 IRC-IRC-IRC-IRC-IRC-IRC-IRC-IRC-IRC-IRC-IRC-IRC-IRC-IRC-IRC-IRC-IRC-IRC
                          Input orientation:                          
 ---------------------------------------------------------------------
 Center     Atomic      Atomic             Coordinates (Angstroms)
 Number     Number       Type             X           Y           Z
 ---------------------------------------------------------------------
      1          6           0       -1.423605    0.730033    0.113294
      2          6           0       -0.344352    1.427614   -0.235269
      3          6           0        0.961031    0.750850   -0.322918
      4          6           0        0.961031   -0.750850   -0.322918
      5          6           0       -0.344352   -1.427614   -0.235269
      6          6           0       -1.423605   -0.730033    0.113294
      7          1           0       -2.369767    1.225320    0.241156
      8          1           0       -0.403306    2.477832   -0.454771
      9          1           0       -0.403306   -2.477832   -0.454771
     10          1           0       -2.369767   -1.225320    0.241156
     11          8           0        1.336482    0.000000    0.793659
     12          1           0        1.776488   -1.283280   -0.783488
     13          1           0        1.776488    1.283280   -0.783488
 ---------------------------------------------------------------------
                    Distance matrix (angstroms):
                    1          2          3          4          5
     1  C    0.000000
     2  C    1.331504   0.000000
     3  C    2.424294   1.472996   0.000000
     4  C    2.840736   2.541144   1.501700   0.000000
     5  C    2.437564   2.855227   2.541144   1.472996   0.000000
     6  C    1.460065   2.437564   2.840736   2.424294   1.331504
     7  H    1.075584   2.090505   3.411380   3.913776   3.371549
     8  H    2.102025   1.074531   2.204829   3.507591   3.912054
     9  H    3.413811   3.912054   3.507591   2.204829   1.074531
    10  H    2.176000   3.371549   3.913776   3.411380   2.090505
    11  O    2.934948   2.433511   1.396954   1.396954   2.433511
    12  H    3.885645   3.485319   2.239370   1.077300   2.195299
    13  H    3.369108   2.195299   1.077300   2.239370   3.485319
                    6          7          8          9         10
     6  C    0.000000
     7  H    2.176000   0.000000
     8  H    3.413811   2.433119   0.000000
     9  H    2.102025   4.250250   4.955665   0.000000
    10  H    1.075584   2.450641   4.250250   2.433119   0.000000
    11  O    2.934948   3.942454   3.274918   3.274918   3.942454
    12  H    3.369108   4.953221   4.359532   2.507292   4.271379
    13  H    3.885645   4.271379   2.507292   4.359532   4.953221
                   11         12         13
    11  O    0.000000
    12  H    2.080337   0.000000
    13  H    2.080337   2.566560   0.000000
 Symmetry turned off by external request.
 Stoichiometry    C6H6O
 Framework group  CS[SG(O),X(C6H6)]
 Deg. of freedom    17
 Full point group                 CS      NOp   2
 Rotational constants (GHZ):      4.6032074      3.7101451      2.3578408
 Standard basis: 6-31G(d) (6D, 7F)
   117 basis functions,   220 primitive gaussians,   117 cartesian basis functions
    25 alpha electrons       25 beta electrons
       nuclear repulsion energy       283.6270228631 Hartrees.
 NAtoms=   13 NActive=   13 NUniq=   13 SFac= 1.00D+00 NAtFMM=   60 NAOKFM=F Big=F
 Integral buffers will be    131072 words long.
 Raffenetti 1 integral format.
 Two-electron integral symmetry is turned off.
 One-electron integrals computed using PRISM.
 NBasis=   117 RedAO= T EigKep=  6.07D-04  NBF=   117
 NBsUse=   117 1.00D-06 EigRej= -1.00D+00 NBFU=   117
 Initial guess from the checkpoint file:  "/tmp/Gau-20610.chk"
 B after Tr=    -0.000208    0.000000   -0.000592
         Rot=    1.000000    0.000000    0.000084    0.000000 Ang=   0.01 deg.
 ExpMin= 1.61D-01 ExpMax= 5.48D+03 ExpMxC= 8.25D+02 IAcc=1 IRadAn=         1 AccDes= 0.00D+00
 Harris functional with IExCor=  205 and IRadAn=       1 diagonalized for initial guess.
 HarFok:  IExCor=  205 AccDes= 0.00D+00 IRadAn=         1 IDoV= 1 UseB2=F ITyADJ=14
 ICtDFT=  3500011 ScaDFX=  1.000000  1.000000  1.000000  1.000000
 FoFCou: FMM=F IPFlag=           0 FMFlag=      100000 FMFlg1=           0
         NFxFlg=           0 DoJE=T BraDBF=F KetDBF=T FulRan=T
         wScrn=  0.000000 ICntrl=     500 IOpCl=  0 I1Cent=   200000004 NGrid=           0
         NMat0=    1 NMatS0=      1 NMatT0=    0 NMatD0=    1 NMtDS0=    0 NMtDT0=    0
 Symmetry not used in FoFCou.
 Keep R1 ints in memory in canonical form, NReq=24776716.
 Requested convergence on RMS density matrix=1.00D-08 within 128 cycles.
 Requested convergence on MAX density matrix=1.00D-06.
 Requested convergence on             energy=1.00D-06.
 No special actions if energy rises.
 SCF Done:  E(RHF) =  -305.483047579     A.U. after   10 cycles
            NFock= 10  Conv=0.62D-08     -V/T= 2.0010
 Range of M.O.s used for correlation:     1   117
 NBasis=   117 NAE=    25 NBE=    25 NFC=     0 NFV=     0
 NROrb=    117 NOA=    25 NOB=    25 NVA=    92 NVB=    92
 Symmetrizing basis deriv contribution to polar:
 IMax=3 JMax=2 DiffMx= 0.00D+00
 Calling FoFJK, ICntrl=      2147 FMM=F ISym2X=0 I1Cent= 0 IOpClX= 0 NMat=1 NMatS=1 NMatT=0.
 -------------------------------------------------------------------
 Center     Atomic                   Forces (Hartrees/Bohr)
 Number     Number              X              Y              Z
 -------------------------------------------------------------------
      1        6          -0.002950189    0.000339630   -0.003815818
      2        6           0.001160548   -0.001451119    0.003327131
      3        6          -0.001091455   -0.003918533   -0.003318526
      4        6          -0.001091455    0.003918533   -0.003318526
      5        6           0.001160548    0.001451118    0.003327131
      6        6          -0.002950189   -0.000339629   -0.003815818
      7        1          -0.000032654    0.000277406    0.000190798
      8        1           0.000666433    0.000955375    0.001943189
      9        1           0.000666433   -0.000955375    0.001943189
     10        1          -0.000032654   -0.000277406    0.000190798
     11        8           0.005294538    0.000000000    0.004478658
     12        1          -0.000399952    0.000877808   -0.000566103
     13        1          -0.000399952   -0.000877808   -0.000566103
 -------------------------------------------------------------------
 Cartesian Forces:  Max     0.005294538 RMS     0.002218849
 IRC-IRC-IRC-IRC-IRC-IRC-IRC-IRC-IRC-IRC-IRC-IRC-IRC-IRC-IRC-IRC-IRC-IRC
 Error in corrector energy =          -0.0000584747
 Magnitude of corrector gradient =     0.0176228978
 Magnitude of analytic gradient =      0.0138567064
 Magnitude of difference =             0.0072319137
 Angle between gradients (degrees)=   22.7864
 Pt  8 Step number  20 out of a maximum of  20
 Modified Bulirsch-Stoer Extrapolation Cycles:
    EPS =    0.000010000000000
 Maximum DWI energy   std dev =  0.000030038 at pt    -1
 Maximum DWI gradient std dev =  0.118965285 at pt    60
 CORRECTOR INTEGRATION CONVERGENCE:
   Recorrection delta-x convergence threshold:    0.010000
   Delta-x Convergence NOT Met
 Maximum number of corrector steps exceded.
 Error termination via Lnk1e in /home/eliot/software/g09E01/l123.exe at Thu Oct  4 09:11:25 2018.
 Job cpu time:       0 days  0 hours  4 minutes  5.7 seconds.
 File lengths (MBytes):  RWF=     25 Int=      0 D2E=      0 Chk=      4 Scr=      1
