 Entering Gaussian System, Link 0=/home/eliot/software/g09E01/g09
 Initial command:
 /home/eliot/software/g09E01/l1.exe "/tmp/Gau-7301.inp" -scrdir="/tmp/"
 Entering Link 1 = /home/eliot/software/g09E01/l1.exe PID=      7303.
  
 Copyright (c) 1988,1990,1992,1993,1995,1998,2003,2009,2015,
            Gaussian, Inc.  All Rights Reserved.
  
 This is part of the Gaussian(R) 09 program.  It is based on
 the Gaussian(R) 03 system (copyright 2003, Gaussian, Inc.),
 the Gaussian(R) 98 system (copyright 1998, Gaussian, Inc.),
 the Gaussian(R) 94 system (copyright 1995, Gaussian, Inc.),
 the Gaussian 92(TM) system (copyright 1992, Gaussian, Inc.),
 the Gaussian 90(TM) system (copyright 1990, Gaussian, Inc.),
 the Gaussian 88(TM) system (copyright 1988, Gaussian, Inc.),
 the Gaussian 86(TM) system (copyright 1986, Carnegie Mellon
 University), and the Gaussian 82(TM) system (copyright 1983,
 Carnegie Mellon University). Gaussian is a federally registered
 trademark of Gaussian, Inc.
  
 This software contains proprietary and confidential information,
 including trade secrets, belonging to Gaussian, Inc.
  
 This software is provided under written license and may be
 used, copied, transmitted, or stored only in accord with that
 written license.
  
 The following legend is applicable only to US Government
 contracts under FAR:
  
                    RESTRICTED RIGHTS LEGEND
  
 Use, reproduction and disclosure by the US Government is
 subject to restrictions as set forth in subparagraphs (a)
 and (c) of the Commercial Computer Software - Restricted
 Rights clause in FAR 52.227-19.
  
 Gaussian, Inc.
 340 Quinnipiac St., Bldg. 40, Wallingford CT 06492
  
  
 ---------------------------------------------------------------
 Warning -- This program may not be used in any manner that
 competes with the business of Gaussian, Inc. or will provide
 assistance to any competitor of Gaussian, Inc.  The licensee
 of this program is prohibited from giving any competitor of
 Gaussian, Inc. access to this program.  By using this program,
 the user acknowledges that Gaussian, Inc. is engaged in the
 business of creating and licensing software in the field of
 computational chemistry and represents and warrants to the
 licensee that it is not a competitor of Gaussian, Inc. and that
 it will not use this program in any manner prohibited above.
 ---------------------------------------------------------------
  

 Cite this work as:
 Gaussian 09, Revision E.01,
 M. J. Frisch, G. W. Trucks, H. B. Schlegel, G. E. Scuseria, 
 M. A. Robb, J. R. Cheeseman, G. Scalmani, V. Barone, B. Mennucci, 
 G. A. Petersson, H. Nakatsuji, M. Caricato, X. Li, H. P. Hratchian, 
 A. F. Izmaylov, J. Bloino, G. Zheng, J. L. Sonnenberg, M. Hada, 
 M. Ehara, K. Toyota, R. Fukuda, J. Hasegawa, M. Ishida, T. Nakajima, 
 Y. Honda, O. Kitao, H. Nakai, T. Vreven, J. A. Montgomery, Jr., 
 J. E. Peralta, F. Ogliaro, M. Bearpark, J. J. Heyd, E. Brothers, 
 K. N. Kudin, V. N. Staroverov, T. Keith, R. Kobayashi, J. Normand, 
 K. Raghavachari, A. Rendell, J. C. Burant, S. S. Iyengar, J. Tomasi, 
 M. Cossi, N. Rega, J. M. Millam, M. Klene, J. E. Knox, J. B. Cross, 
 V. Bakken, C. Adamo, J. Jaramillo, R. Gomperts, R. E. Stratmann, 
 O. Yazyev, A. J. Austin, R. Cammi, C. Pomelli, J. W. Ochterski, 
 R. L. Martin, K. Morokuma, V. G. Zakrzewski, G. A. Voth, 
 P. Salvador, J. J. Dannenberg, S. Dapprich, A. D. Daniels, 
 O. Farkas, J. B. Foresman, J. V. Ortiz, J. Cioslowski, 
 and D. J. Fox, Gaussian, Inc., Wallingford CT, 2013.
 
 ******************************************
 Gaussian 09:  ES64L-G09RevE.01 30-Nov-2015
                 5-Oct-2018 
 ******************************************
 %nproc=2
 Will use up to    2 processors via shared memory.
 ---------------
 # freq bp86/SVP
 ---------------
 1/10=4,30=1,38=1/1,3;
 2/12=2,17=6,18=5,40=1/2;
 3/5=18,7=101,11=2,16=1,25=1,30=1,71=2,74=404,140=1/1,2,3;
 4//1;
 5/5=2,38=5,98=1/2;
 8/6=4,10=90,11=11/1;
 11/6=1,8=1,9=11,15=111,16=1/1,2,10;
 10/6=1/2;
 6/7=2,8=2,9=2,10=2,18=1,28=1/1;
 7/8=1,10=1,25=1/1,2,3,16;
 1/10=4,30=1/3;
 99//99;
 ---------------
 oxepin-bp86.log
 ---------------
 Symbolic Z-matrix:
 Charge =  0 Multiplicity = 1
 C                    -1.44733   0.68519   0.1486 
 C                    -0.31019   1.51035  -0.23943 
 C                     0.99352   1.15151  -0.12704 
 C                     0.99352  -1.15151  -0.12704 
 C                    -0.3102   -1.51035  -0.23943 
 C                    -1.44733  -0.68518   0.1486 
 H                    -2.39598   1.20763   0.36035 
 H                    -0.51349   2.49933  -0.6852 
 H                    -0.5135   -2.49933  -0.6852 
 H                    -2.39598  -1.20763   0.36036 
 O                     1.41803   0.        0.5323 
 H                     1.82134  -1.784    -0.49719 
 H                     1.82134   1.784    -0.49719 
 

 GradGradGradGradGradGradGradGradGradGradGradGradGradGradGradGradGradGrad
 Berny optimization.
 Initialization pass.
 Trust Radius=3.00D-01 FncErr=1.00D-07 GrdErr=1.00D-07
 Number of steps in this run=      2 maximum allowed number of steps=      2.
 GradGradGradGradGradGradGradGradGradGradGradGradGradGradGradGradGradGrad

                          Input orientation:                          
 ---------------------------------------------------------------------
 Center     Atomic      Atomic             Coordinates (Angstroms)
 Number     Number       Type             X           Y           Z
 ---------------------------------------------------------------------
      1          6           0       -1.447330    0.685190    0.148600
      2          6           0       -0.310190    1.510350   -0.239430
      3          6           0        0.993520    1.151510   -0.127040
      4          6           0        0.993520   -1.151510   -0.127040
      5          6           0       -0.310200   -1.510350   -0.239430
      6          6           0       -1.447330   -0.685180    0.148600
      7          1           0       -2.395980    1.207630    0.360350
      8          1           0       -0.513490    2.499330   -0.685200
      9          1           0       -0.513500   -2.499330   -0.685200
     10          1           0       -2.395980   -1.207630    0.360360
     11          8           0        1.418030    0.000000    0.532300
     12          1           0        1.821340   -1.784000   -0.497190
     13          1           0        1.821340    1.784000   -0.497190
 ---------------------------------------------------------------------
                    Distance matrix (angstroms):
                    1          2          3          4          5
     1  C    0.000000
     2  C    1.457581   0.000000
     3  C    2.500236   1.356856   0.000000
     4  C    3.067115   2.966107   2.303020   0.000000
     5  C    2.502804   3.020700   2.966111   1.356865   0.000000
     6  C    1.370370   2.502800   3.067109   2.500238   1.457579
     7  H    1.103503   2.191323   3.424822   4.158341   3.478165
     8  H    2.204174   1.103686   2.097437   3.988891   4.039501
     9  H    3.421758   4.039502   3.988895   2.097444   1.103686
    10  H    2.127803   3.478172   4.158342   3.424824   2.191316
    11  O    2.971027   2.421460   1.393167   1.393167   2.421467
    12  H    4.147065   3.932252   3.072380   1.105595   2.164437
    13  H    3.508366   2.164427   1.105595   3.072380   3.932257
                    6          7          8          9         10
     6  C    0.000000
     7  H    2.127793   0.000000
     8  H    3.421752   2.511062   0.000000
     9  H    2.204178   4.287010   4.998660   0.000000
    10  H    1.103509   2.415260   4.287017   2.511059   0.000000
    11  O    2.971024   4.004324   3.385222   3.385227   4.004323
    12  H    3.508369   5.241280   4.881977   2.449188   4.342048
    13  H    4.147059   4.342046   2.449179   4.881981   5.241281
                   11         12         13
    11  O    0.000000
    12  H    2.098848   0.000000
    13  H    2.098848   3.568000   0.000000
 Stoichiometry    C6H6O
 Framework group  C1[X(C6H6O)]
 Deg. of freedom    33
 Full point group                 C1      NOp   1
 Largest Abelian subgroup         C1      NOp   1
 Largest concise Abelian subgroup C1      NOp   1
                         Standard orientation:                         
 ---------------------------------------------------------------------
 Center     Atomic      Atomic             Coordinates (Angstroms)
 Number     Number       Type             X           Y           Z
 ---------------------------------------------------------------------
      1          6           0        1.447319   -0.685208    0.148602
      2          6           0        0.310168   -1.510353   -0.239428
      3          6           0       -0.993537   -1.151496   -0.127038
      4          6           0       -0.993507    1.151524   -0.127038
      5          6           0        0.310218    1.510347   -0.239428
      6          6           0        1.447337    0.685162    0.148602
      7          1           0        2.395962   -1.207661    0.360352
      8          1           0        0.513455   -2.499336   -0.685198
      9          1           0        0.513531    2.499324   -0.685198
     10          1           0        2.395994    1.207599    0.360362
     11          8           0       -1.418032    0.000020    0.532302
     12          1           0       -1.821318    1.784025   -0.497188
     13          1           0       -1.821365   -1.783975   -0.497188
 ---------------------------------------------------------------------
 Rotational constants (GHZ):      3.9414038      3.7247948      2.0458584
 Standard basis: SVP (5D, 7F)
 There are   135 symmetry adapted cartesian basis functions of A   symmetry.
 There are   128 symmetry adapted basis functions of A   symmetry.
   128 basis functions,   217 primitive gaussians,   135 cartesian basis functions
    25 alpha electrons       25 beta electrons
       nuclear repulsion energy       273.0842213282 Hartrees.
 NAtoms=   13 NActive=   13 NUniq=   13 SFac= 1.00D+00 NAtFMM=   60 NAOKFM=F Big=F
 Integral buffers will be    131072 words long.
 Raffenetti 2 integral format.
 Two-electron integral symmetry is turned on.
 One-electron integrals computed using PRISM.
 NBasis=   128 RedAO= T EigKep=  8.05D-04  NBF=   128
 NBsUse=   128 1.00D-06 EigRej= -1.00D+00 NBFU=   128
 ExpMin= 1.22D-01 ExpMax= 2.27D+03 ExpMxC= 3.41D+02 IAcc=1 IRadAn=         1 AccDes= 0.00D+00
 Harris functional with IExCor=  404 and IRadAn=       1 diagonalized for initial guess.
 HarFok:  IExCor=  404 AccDes= 0.00D+00 IRadAn=         1 IDoV= 1 UseB2=F ITyADJ=14
 ICtDFT=  3500011 ScaDFX=  1.000000  1.000000  1.000000  1.000000
 FoFCou: FMM=F IPFlag=           0 FMFlag=      100000 FMFlg1=           0
         NFxFlg=           0 DoJE=T BraDBF=F KetDBF=T FulRan=T
         wScrn=  0.000000 ICntrl=     500 IOpCl=  0 I1Cent=   200000004 NGrid=           0
         NMat0=    1 NMatS0=      1 NMatT0=    0 NMatD0=    1 NMtDS0=    0 NMtDT0=    0
 Petite list used in FoFCou.
 Requested convergence on RMS density matrix=1.00D-08 within 128 cycles.
 Requested convergence on MAX density matrix=1.00D-06.
 Requested convergence on             energy=1.00D-06.
 No special actions if energy rises.
 Integral accuracy reduced to 1.0D-05 until final iterations.
 Initial convergence to 1.0D-05 achieved.  Increase integral accuracy.
 SCF Done:  E(RB-P86) =  -307.173595491     A.U. after   15 cycles
            NFock= 15  Conv=0.53D-08     -V/T= 2.0115
 Range of M.O.s used for correlation:     1   128
 NBasis=   128 NAE=    25 NBE=    25 NFC=     0 NFV=     0
 NROrb=    128 NOA=    25 NOB=    25 NVA=   103 NVB=   103
 Symmetrizing basis deriv contribution to polar:
 IMax=3 JMax=2 DiffMx= 0.00D+00
 G2DrvN: will do    14 centers at a time, making    1 passes.
 Calling FoFCou, ICntrl=  3507 FMM=F I1Cent=   0 AccDes= 0.00D+00.
 End of G2Drv F.D. properties file   721 does not exist.
 End of G2Drv F.D. properties file   722 does not exist.
 End of G2Drv F.D. properties file   788 does not exist.
          IDoAtm=1111111111111
          Differentiating once with respect to electric field.
                with respect to dipole field.
          Differentiating once with respect to nuclear coordinates.
          There are    42 degrees of freedom in the 1st order CPHF.  IDoFFX=6 NUNeed=     3.
     39 vectors produced by pass  0 Test12= 6.13D-15 2.38D-09 XBig12= 2.02D+02 9.06D+00.
 AX will form    39 AO Fock derivatives at one time.
     39 vectors produced by pass  1 Test12= 6.13D-15 2.38D-09 XBig12= 1.04D+02 2.65D+00.
     39 vectors produced by pass  2 Test12= 6.13D-15 2.38D-09 XBig12= 1.18D+00 1.80D-01.
     39 vectors produced by pass  3 Test12= 6.13D-15 2.38D-09 XBig12= 2.43D-03 1.10D-02.
     34 vectors produced by pass  4 Test12= 6.13D-15 2.38D-09 XBig12= 1.02D-06 1.12D-04.
      9 vectors produced by pass  5 Test12= 6.13D-15 2.38D-09 XBig12= 1.45D-10 1.51D-06.
      2 vectors produced by pass  6 Test12= 6.13D-15 2.38D-09 XBig12= 1.24D-14 1.33D-08.
 InvSVY:  IOpt=1 It=  1 EMax= 7.11D-15
 Solved reduced A of dimension   201 with    42 vectors.
 Isotropic polarizability for W=    0.000000       65.84 Bohr**3.
 End of Minotr F.D. properties file   721 does not exist.
 End of Minotr F.D. properties file   722 does not exist.
 End of Minotr F.D. properties file   788 does not exist.

 **********************************************************************

            Population analysis using the SCF density.

 **********************************************************************

 Orbital symmetries:
       Occupied  (A) (A) (A) (A) (A) (A) (A) (A) (A) (A) (A) (A)
                 (A) (A) (A) (A) (A) (A) (A) (A) (A) (A) (A) (A)
                 (A)
       Virtual   (A) (A) (A) (A) (A) (A) (A) (A) (A) (A) (A) (A)
                 (A) (A) (A) (A) (A) (A) (A) (A) (A) (A) (A) (A)
                 (A) (A) (A) (A) (A) (A) (A) (A) (A) (A) (A) (A)
                 (A) (A) (A) (A) (A) (A) (A) (A) (A) (A) (A) (A)
                 (A) (A) (A) (A) (A) (A) (A) (A) (A) (A) (A) (A)
                 (A) (A) (A) (A) (A) (A) (A) (A) (A) (A) (A) (A)
                 (A) (A) (A) (A) (A) (A) (A) (A) (A) (A) (A) (A)
                 (A) (A) (A) (A) (A) (A) (A) (A) (A) (A) (A) (A)
                 (A) (A) (A) (A) (A) (A) (A)
 The electronic state is 1-A.
 Alpha  occ. eigenvalues --  -18.80824  -9.97521  -9.97514  -9.92761  -9.92729
 Alpha  occ. eigenvalues --   -9.92271  -9.92265  -0.97098  -0.73610  -0.70807
 Alpha  occ. eigenvalues --   -0.62749  -0.59706  -0.50137  -0.49166  -0.46685
 Alpha  occ. eigenvalues --   -0.41498  -0.40630  -0.38824  -0.38027  -0.35050
 Alpha  occ. eigenvalues --   -0.31913  -0.28461  -0.25708  -0.24719  -0.18603
 Alpha virt. eigenvalues --   -0.08334  -0.01514   0.03844   0.04366   0.06381
 Alpha virt. eigenvalues --    0.08137   0.09220   0.11521   0.11681   0.12913
 Alpha virt. eigenvalues --    0.20083   0.24173   0.27436   0.31048   0.34290
 Alpha virt. eigenvalues --    0.35580   0.37459   0.38296   0.40085   0.40570
 Alpha virt. eigenvalues --    0.41800   0.43063   0.44030   0.47724   0.48604
 Alpha virt. eigenvalues --    0.49044   0.50988   0.54791   0.55112   0.58105
 Alpha virt. eigenvalues --    0.58294   0.60754   0.61418   0.62102   0.63754
 Alpha virt. eigenvalues --    0.64704   0.65056   0.69603   0.72124   0.72568
 Alpha virt. eigenvalues --    0.77582   0.81613   0.86964   0.92737   1.01132
 Alpha virt. eigenvalues --    1.07339   1.08012   1.15192   1.16366   1.19812
 Alpha virt. eigenvalues --    1.19843   1.26191   1.30090   1.37486   1.42177
 Alpha virt. eigenvalues --    1.47946   1.57012   1.58473   1.61220   1.61435
 Alpha virt. eigenvalues --    1.62697   1.63630   1.65731   1.65789   1.68520
 Alpha virt. eigenvalues --    1.72323   1.75644   1.79318   1.79689   1.82789
 Alpha virt. eigenvalues --    1.85832   1.89670   1.89752   1.92147   1.92680
 Alpha virt. eigenvalues --    1.96359   1.96689   2.04099   2.06386   2.07181
 Alpha virt. eigenvalues --    2.14824   2.25602   2.25668   2.30656   2.32224
 Alpha virt. eigenvalues --    2.33453   2.40838   2.48452   2.52484   2.57371
 Alpha virt. eigenvalues --    2.63381   2.64448   2.69759   2.75006   2.76992
 Alpha virt. eigenvalues --    2.85182   2.94501   2.95341   3.04000   3.07174
 Alpha virt. eigenvalues --    3.30611   3.33121   3.47756
          Condensed to atoms (all electrons):
               1          2          3          4          5          6
     1  C    4.909271   0.300057  -0.003986  -0.039613  -0.012562   0.526181
     2  C    0.300057   5.108363   0.459866  -0.011683  -0.014417  -0.012561
     3  C   -0.003986   0.459866   4.805450  -0.026368  -0.011684  -0.039613
     4  C   -0.039613  -0.011683  -0.026368   4.805451   0.459867  -0.003986
     5  C   -0.012562  -0.014417  -0.011684   0.459867   5.108360   0.300060
     6  C    0.526181  -0.012561  -0.039613  -0.003986   0.300060   4.909273
     7  H    0.404119  -0.060536   0.010992  -0.000389   0.012473  -0.046792
     8  H   -0.045624   0.376299  -0.027730   0.001248  -0.001696   0.010892
     9  H    0.010892  -0.001696   0.001248  -0.027730   0.376300  -0.045624
    10  H   -0.046792   0.012472  -0.000389   0.010992  -0.060535   0.404116
    11  O    0.001234  -0.071064   0.334202   0.334201  -0.071063   0.001234
    12  H    0.000172  -0.002043   0.005160   0.404878  -0.068768   0.009563
    13  H    0.009563  -0.068769   0.404879   0.005160  -0.002043   0.000172
               7          8          9         10         11         12
     1  C    0.404119  -0.045624   0.010892  -0.046792   0.001234   0.000172
     2  C   -0.060536   0.376299  -0.001696   0.012472  -0.071064  -0.002043
     3  C    0.010992  -0.027730   0.001248  -0.000389   0.334202   0.005160
     4  C   -0.000389   0.001248  -0.027730   0.010992   0.334201   0.404878
     5  C    0.012473  -0.001696   0.376300  -0.060535  -0.071063  -0.068768
     6  C   -0.046792   0.010892  -0.045624   0.404116   0.001234   0.009563
     7  H    0.690797  -0.009622  -0.000312  -0.016821   0.000037   0.000027
     8  H   -0.009622   0.676693   0.000043  -0.000312   0.004118   0.000087
     9  H   -0.000312   0.000043   0.676691  -0.009622   0.004118  -0.007578
    10  H   -0.016821  -0.000312  -0.009622   0.690797   0.000037  -0.000280
    11  O    0.000037   0.004118   0.004118   0.000037   7.807130  -0.039937
    12  H    0.000027   0.000087  -0.007578  -0.000280  -0.039937   0.666226
    13  H   -0.000280  -0.007579   0.000087   0.000027  -0.039937   0.000595
              13
     1  C    0.009563
     2  C   -0.068769
     3  C    0.404879
     4  C    0.005160
     5  C   -0.002043
     6  C    0.000172
     7  H   -0.000280
     8  H   -0.007579
     9  H    0.000087
    10  H    0.000027
    11  O   -0.039937
    12  H    0.000595
    13  H    0.666227
 Mulliken charges:
               1
     1  C   -0.012912
     2  C   -0.014289
     3  C    0.087971
     4  C    0.087971
     5  C   -0.014292
     6  C   -0.012917
     7  H    0.016307
     8  H    0.023182
     9  H    0.023183
    10  H    0.016310
    11  O   -0.264311
    12  H    0.031899
    13  H    0.031898
 Sum of Mulliken charges =   0.00000
 Mulliken charges with hydrogens summed into heavy atoms:
               1
     1  C    0.003396
     2  C    0.008893
     3  C    0.119869
     4  C    0.119869
     5  C    0.008891
     6  C    0.003393
    11  O   -0.264311
 APT charges:
               1
     1  C   -0.011459
     2  C   -0.093640
     3  C    0.301060
     4  C    0.301060
     5  C   -0.093643
     6  C   -0.011451
     7  H    0.020940
     8  H    0.034112
     9  H    0.034113
    10  H    0.020937
    11  O   -0.544973
    12  H    0.021472
    13  H    0.021472
 Sum of APT charges =   0.00000
 APT charges with hydrogens summed into heavy atoms:
               1
     1  C    0.009481
     2  C   -0.059528
     3  C    0.322532
     4  C    0.322533
     5  C   -0.059530
     6  C    0.009486
    11  O   -0.544973
 Electronic spatial extent (au):  <R**2>=            618.9169
 Charge=              0.0000 electrons
 Dipole moment (field-independent basis, Debye):
    X=              0.5150    Y=              0.0000    Z=             -1.1448  Tot=              1.2553
 Quadrupole moment (field-independent basis, Debye-Ang):
   XX=            -38.3308   YY=            -35.9919   ZZ=            -44.0601
   XY=              0.0000   XZ=              2.2080   YZ=              0.0000
 Traceless Quadrupole moment (field-independent basis, Debye-Ang):
   XX=              1.1301   YY=              3.4691   ZZ=             -4.5992
   XY=              0.0000   XZ=              2.2080   YZ=              0.0000
 Octapole moment (field-independent basis, Debye-Ang**2):
  XXX=             -2.0270  YYY=              0.0001  ZZZ=              2.5828  XYY=             -2.6803
  XXY=             -0.0001  XXZ=             -0.8064  XZZ=             -2.6122  YZZ=              0.0000
  YYZ=             -4.8322  XYZ=              0.0000
 Hexadecapole moment (field-independent basis, Debye-Ang**3):
 XXXX=           -365.3851 YYYY=           -366.2153 ZZZZ=            -69.8327 XXXY=              0.0001
 XXXZ=              8.8244 YYYX=             -0.0004 YYYZ=             -0.0001 ZZZX=             -3.8643
 ZZZY=              0.0001 XXYY=           -112.2249 XXZZ=            -78.8332 YYZZ=            -76.9374
 XXYZ=             -0.0001 YYXZ=              0.5855 ZZXY=              0.0000
 N-N= 2.730842213282D+02 E-N=-1.259623025806D+03  KE= 3.036948342634D+02
  Exact polarizability:  81.217   0.000  81.686   4.370   0.000  34.605
 Approx polarizability: 183.856  -0.001 160.736   2.213   0.000  59.090
 Calling FoFJK, ICntrl=    100527 FMM=F ISym2X=0 I1Cent= 0 IOpClX= 0 NMat=1 NMatS=1 NMatT=0.
 Full mass-weighted force constant matrix:
 Low frequencies ---  -19.8842  -12.2176   -0.0005    0.0002    0.0010   10.6804
 Low frequencies ---  160.1542  231.1038  349.1411
 Diagonal vibrational polarizability:
        2.1395475       4.8214340      11.8625619
 Harmonic frequencies (cm**-1), IR intensities (KM/Mole), Raman scattering
 activities (A**4/AMU), depolarization ratios for plane and unpolarized
 incident light, reduced masses (AMU), force constants (mDyne/A),
 and normal coordinates:
                      1                      2                      3
                      A                      A                      A
 Frequencies --    160.1535               231.1030               349.1411
 Red. masses --      4.2024                 2.6365                 3.8524
 Frc consts  --      0.0635                 0.0830                 0.2767
 IR Inten    --      4.6929                 1.8004                 8.8932
  Atom  AN      X      Y      Z        X      Y      Z        X      Y      Z
     1   6    -0.10  -0.01   0.11     0.00   0.03  -0.17    -0.14   0.00   0.01
     2   6    -0.03   0.03  -0.12    -0.03   0.04  -0.10    -0.02  -0.19  -0.04
     3   6    -0.01   0.11  -0.11    -0.04  -0.06   0.17     0.02  -0.16   0.04
     4   6    -0.01  -0.11  -0.11     0.04  -0.06  -0.17     0.02   0.16   0.04
     5   6    -0.03  -0.03  -0.12     0.03   0.04   0.10    -0.02   0.19  -0.04
     6   6    -0.10   0.01   0.11     0.00   0.03   0.17    -0.14   0.00   0.01
     7   1    -0.12   0.00   0.19     0.01  -0.02  -0.29    -0.16   0.08   0.28
     8   1     0.00   0.12  -0.30    -0.07  -0.01  -0.01     0.06  -0.25   0.14
     9   1     0.00  -0.12  -0.30     0.07  -0.01   0.01     0.06   0.25   0.14
    10   1    -0.12   0.00   0.19    -0.01  -0.02   0.29    -0.16  -0.08   0.28
    11   8     0.24   0.00   0.25     0.00   0.02   0.00     0.24   0.00  -0.11
    12   1    -0.09  -0.32  -0.33     0.06  -0.24  -0.52    -0.10   0.19   0.37
    13   1    -0.09   0.32  -0.33    -0.06  -0.24   0.52    -0.10  -0.19   0.37
                      4                      5                      6
                      A                      A                      A
 Frequencies --    380.6089               437.3238               611.1676
 Red. masses --      2.6049                 5.1892                 3.5863
 Frc consts  --      0.2223                 0.5847                 0.7893
 IR Inten    --      8.5381                 0.9779                 0.4494
  Atom  AN      X      Y      Z        X      Y      Z        X      Y      Z
     1   6    -0.03  -0.02  -0.06    -0.20   0.16   0.16    -0.03   0.11  -0.20
     2   6    -0.02  -0.11   0.19    -0.14   0.10  -0.05    -0.06  -0.05   0.16
     3   6    -0.01   0.04  -0.11    -0.18  -0.17  -0.02    -0.08   0.00  -0.15
     4   6    -0.01  -0.04  -0.11     0.18  -0.17   0.02     0.08   0.00   0.15
     5   6    -0.02   0.11   0.19     0.14   0.10   0.05     0.06  -0.05  -0.16
     6   6    -0.03   0.02  -0.06     0.20   0.16  -0.16     0.03   0.11   0.20
     7   1     0.09   0.06  -0.43    -0.31   0.01   0.31    -0.02   0.08  -0.33
     8   1     0.00  -0.15   0.29     0.12   0.16  -0.09     0.01  -0.18   0.47
     9   1     0.00   0.15   0.29    -0.12   0.16   0.09    -0.01  -0.18  -0.47
    10   1     0.09  -0.06  -0.43     0.31   0.01  -0.31     0.02   0.08   0.33
    11   8     0.08   0.00   0.02     0.00  -0.13   0.00     0.00  -0.08   0.00
    12   1    -0.02  -0.17  -0.31     0.20  -0.19  -0.05     0.10  -0.01   0.10
    13   1    -0.02   0.17  -0.31    -0.20  -0.19   0.05    -0.10  -0.01  -0.10
                      7                      8                      9
                      A                      A                      A
 Frequencies --    721.9727               728.8096               747.1184
 Red. masses --      1.4229                 1.4299                 2.1525
 Frc consts  --      0.4370                 0.4475                 0.7079
 IR Inten    --     79.9154                17.0030                 0.6586
  Atom  AN      X      Y      Z        X      Y      Z        X      Y      Z
     1   6     0.04   0.00  -0.05     0.02   0.02  -0.04     0.03   0.01   0.09
     2   6    -0.02   0.05   0.01    -0.03  -0.01   0.06    -0.05   0.13   0.01
     3   6    -0.02   0.07  -0.07    -0.03  -0.06   0.08    -0.08  -0.03  -0.04
     4   6    -0.02  -0.07  -0.07     0.03  -0.06  -0.08    -0.08   0.03  -0.04
     5   6    -0.02  -0.05   0.01     0.03  -0.01  -0.06    -0.05  -0.13   0.01
     6   6     0.04   0.00  -0.05    -0.02   0.02   0.04     0.03  -0.01   0.09
     7   1    -0.10  -0.08   0.40     0.06   0.04  -0.14     0.11  -0.09  -0.51
     8   1    -0.10  -0.16   0.44     0.00   0.20  -0.39     0.05   0.11   0.09
     9   1    -0.10   0.16   0.44     0.00   0.20   0.39     0.05  -0.11   0.09
    10   1    -0.10   0.08   0.40    -0.06   0.04   0.14     0.11   0.09  -0.51
    11   8     0.03   0.00   0.03     0.00   0.02   0.00     0.14   0.00  -0.07
    12   1    -0.04   0.10   0.26     0.00   0.22   0.46    -0.11   0.19   0.31
    13   1    -0.04  -0.10   0.26     0.00   0.22  -0.46    -0.11  -0.19   0.31
                     10                     11                     12
                      A                      A                      A
 Frequencies --    812.3093               870.6225               892.6479
 Red. masses --      2.2762                 2.1778                 1.4134
 Frc consts  --      0.8849                 0.9726                 0.6636
 IR Inten    --      4.5881                 3.9831                 1.4261
  Atom  AN      X      Y      Z        X      Y      Z        X      Y      Z
     1   6     0.12   0.00  -0.05    -0.10   0.07  -0.02    -0.01   0.00   0.01
     2   6    -0.07   0.01   0.08     0.02  -0.10  -0.11     0.01   0.06  -0.07
     3   6    -0.10  -0.08   0.03     0.06  -0.02   0.07    -0.02  -0.08   0.06
     4   6    -0.10   0.08   0.03    -0.06  -0.02  -0.07    -0.02   0.08   0.06
     5   6    -0.07  -0.01   0.08    -0.02  -0.10   0.11     0.01  -0.06  -0.07
     6   6     0.12   0.00  -0.05     0.10   0.07   0.02    -0.01   0.00   0.01
     7   1    -0.04  -0.14   0.39    -0.14   0.05   0.09    -0.01  -0.03  -0.06
     8   1    -0.08   0.18  -0.30     0.09  -0.30   0.35     0.05  -0.18   0.48
     9   1    -0.08  -0.18  -0.30    -0.09  -0.30  -0.35     0.05   0.18   0.48
    10   1    -0.04   0.14   0.39     0.14   0.05  -0.09    -0.01   0.03  -0.06
    11   8     0.11   0.00  -0.07     0.00   0.08   0.00     0.01   0.00   0.00
    12   1    -0.11  -0.14  -0.33     0.00   0.29   0.33     0.03  -0.15  -0.43
    13   1    -0.11   0.14  -0.33     0.00   0.29  -0.33     0.03   0.15  -0.43
                     13                     14                     15
                      A                      A                      A
 Frequencies --    905.6536               906.9184               950.4050
 Red. masses --      5.9551                 2.0209                 1.4461
 Frc consts  --      2.8778                 0.9793                 0.7696
 IR Inten    --      5.8287                 0.0573                 1.7455
  Atom  AN      X      Y      Z        X      Y      Z        X      Y      Z
     1   6     0.22  -0.08   0.10     0.08  -0.07   0.00    -0.09  -0.02   0.08
     2   6     0.01  -0.20  -0.11    -0.01   0.16  -0.03     0.01   0.02   0.01
     3   6    -0.14  -0.15  -0.14    -0.04  -0.05   0.04     0.04   0.03   0.02
     4   6    -0.14   0.15  -0.14     0.04  -0.05  -0.04    -0.04   0.03  -0.02
     5   6     0.01   0.20  -0.11     0.01   0.16   0.03    -0.01   0.02  -0.01
     6   6     0.22   0.08   0.10    -0.08  -0.07   0.00     0.09  -0.02  -0.08
     7   1     0.25  -0.14  -0.08     0.05  -0.11   0.02     0.04  -0.08  -0.68
     8   1     0.09  -0.27   0.04    -0.11  -0.10   0.52     0.04   0.01   0.05
     9   1     0.09   0.27   0.04     0.11  -0.10  -0.52    -0.04   0.01  -0.05
    10   1     0.25   0.14  -0.08    -0.05  -0.11  -0.02    -0.04  -0.08   0.68
    11   8    -0.13   0.00   0.22     0.00  -0.05   0.00     0.00  -0.04   0.00
    12   1    -0.27   0.15   0.13    -0.07   0.05   0.37    -0.10  -0.02   0.03
    13   1    -0.27  -0.15   0.13     0.07   0.05  -0.37     0.10  -0.02  -0.03
                     16                     17                     18
                      A                      A                      A
 Frequencies --    964.4771               965.4705              1062.5527
 Red. masses --      2.2750                 2.2730                 1.9817
 Frc consts  --      1.2468                 1.2484                 1.3182
 IR Inten    --      8.1100                14.9125                58.0984
  Atom  AN      X      Y      Z        X      Y      Z        X      Y      Z
     1   6     0.11   0.03   0.10    -0.07   0.05  -0.07    -0.03  -0.05  -0.03
     2   6     0.00  -0.05  -0.06     0.07   0.08   0.07     0.06   0.05   0.03
     3   6    -0.09  -0.08  -0.05    -0.02  -0.12  -0.08     0.01  -0.10  -0.06
     4   6     0.09  -0.08   0.05    -0.02   0.12  -0.08    -0.01  -0.10   0.06
     5   6     0.00  -0.05   0.06     0.07  -0.08   0.07    -0.06   0.05  -0.03
     6   6    -0.11   0.03  -0.10    -0.07  -0.05  -0.07     0.03  -0.05   0.03
     7   1     0.36   0.31  -0.32    -0.11   0.07   0.13    -0.19  -0.33  -0.05
     8   1     0.04  -0.12   0.10     0.53   0.22  -0.04     0.53   0.15   0.03
     9   1    -0.04  -0.12  -0.10     0.53  -0.22  -0.04    -0.53   0.15  -0.03
    10   1    -0.36   0.31   0.31    -0.11  -0.07   0.13     0.19  -0.33   0.05
    11   8     0.00   0.13   0.00    -0.03   0.00   0.11     0.00   0.17   0.00
    12   1     0.28   0.08  -0.08     0.07   0.27  -0.03     0.06  -0.03  -0.04
    13   1    -0.28   0.09   0.08     0.07  -0.27  -0.03    -0.06  -0.03   0.04
                     19                     20                     21
                      A                      A                      A
 Frequencies --   1179.3393              1183.1564              1216.3078
 Red. masses --      1.0776                 1.1493                 1.5250
 Frc consts  --      0.8830                 0.9479                 1.3292
 IR Inten    --      0.0765                 6.0826                41.9883
  Atom  AN      X      Y      Z        X      Y      Z        X      Y      Z
     1   6     0.01   0.04   0.00     0.01   0.02  -0.01     0.02  -0.03   0.00
     2   6     0.00   0.02   0.00     0.01  -0.02  -0.01     0.00  -0.01  -0.01
     3   6    -0.03  -0.01  -0.01    -0.03   0.05   0.03    -0.05   0.08   0.05
     4   6    -0.03   0.01  -0.01    -0.03  -0.05   0.03     0.05   0.08  -0.05
     5   6     0.00  -0.02   0.00     0.01   0.02  -0.01     0.00  -0.01   0.01
     6   6     0.01  -0.04   0.00     0.01  -0.02  -0.01    -0.02  -0.03   0.00
     7   1     0.30   0.61   0.09     0.03   0.08   0.03     0.06   0.05   0.04
     8   1    -0.15  -0.02   0.01     0.47   0.05   0.06     0.58   0.08   0.06
     9   1    -0.15   0.02   0.01     0.47  -0.05   0.06    -0.58   0.08  -0.06
    10   1     0.30  -0.61   0.09     0.03  -0.08   0.03    -0.06   0.05  -0.04
    11   8     0.01   0.00   0.00    -0.01   0.00  -0.04     0.00  -0.12   0.00
    12   1    -0.02   0.02  -0.01    -0.32  -0.37   0.15     0.22   0.27  -0.08
    13   1    -0.02  -0.02  -0.01    -0.32   0.37   0.15    -0.22   0.27   0.08
                     22                     23                     24
                      A                      A                      A
 Frequencies --   1303.9644              1369.4042              1406.6900
 Red. masses --      1.1694                 1.4959                 1.7679
 Frc consts  --      1.1715                 1.6528                 2.0612
 IR Inten    --      0.5472                 3.3762                 2.7680
  Atom  AN      X      Y      Z        X      Y      Z        X      Y      Z
     1   6     0.02   0.03   0.01     0.03  -0.01   0.01    -0.12  -0.09  -0.04
     2   6     0.04   0.02   0.01    -0.08  -0.05  -0.03     0.03   0.07   0.03
     3   6     0.04  -0.03  -0.01    -0.04   0.09   0.04     0.05  -0.05  -0.02
     4   6    -0.04  -0.03   0.01    -0.04  -0.09   0.04    -0.05  -0.05   0.02
     5   6    -0.04   0.02  -0.01    -0.08   0.05  -0.03    -0.03   0.07  -0.03
     6   6    -0.02   0.03  -0.01     0.03   0.01   0.01     0.12  -0.09   0.04
     7   1    -0.14  -0.28  -0.05     0.08   0.07   0.03     0.20   0.56   0.09
     8   1    -0.25  -0.02  -0.03     0.40   0.02   0.04    -0.09   0.06   0.01
     9   1     0.25  -0.02   0.03     0.40  -0.02   0.04     0.09   0.06  -0.01
    10   1     0.14  -0.28   0.05     0.08  -0.07   0.03    -0.20   0.56  -0.09
    11   8     0.00  -0.04   0.00     0.03   0.00  -0.01     0.00   0.00   0.00
    12   1     0.37   0.40  -0.18     0.39   0.36  -0.16     0.19   0.21  -0.11
    13   1    -0.37   0.40   0.18     0.39  -0.36  -0.16    -0.19   0.21   0.11
                     25                     26                     27
                      A                      A                      A
 Frequencies --   1590.1306              1611.8330              1645.0056
 Red. masses --      8.5495                 6.6475                 5.5019
 Frc consts  --     12.7367                10.1753                 8.7720
 IR Inten    --      6.0040                13.7433                17.7281
  Atom  AN      X      Y      Z        X      Y      Z        X      Y      Z
     1   6    -0.10  -0.50  -0.04     0.09   0.03   0.01    -0.01   0.20   0.01
     2   6     0.22   0.07   0.02    -0.39   0.02  -0.01     0.28  -0.07  -0.01
     3   6    -0.16   0.04   0.05     0.29  -0.08  -0.03    -0.26   0.11   0.06
     4   6    -0.16  -0.04   0.05    -0.29  -0.08   0.03    -0.26  -0.11   0.06
     5   6     0.22  -0.07   0.02     0.39   0.02   0.01     0.28   0.07  -0.01
     6   6    -0.10   0.50  -0.04    -0.09   0.03  -0.01    -0.01  -0.20   0.01
     7   1     0.27   0.18   0.15     0.10   0.03  -0.02    -0.24  -0.20  -0.10
     8   1     0.05   0.06  -0.07     0.34   0.14   0.13    -0.24  -0.16  -0.12
     9   1     0.05  -0.06  -0.07    -0.34   0.14  -0.13    -0.24   0.16  -0.12
    10   1     0.27  -0.18   0.15    -0.10   0.03   0.02    -0.24   0.20  -0.10
    11   8     0.03   0.00  -0.06     0.00   0.01   0.00     0.04   0.00  -0.04
    12   1    -0.05   0.13   0.02    -0.08   0.21  -0.17     0.05   0.27  -0.14
    13   1    -0.05  -0.13   0.02     0.08   0.21   0.17     0.05  -0.27  -0.14
                     28                     29                     30
                      A                      A                      A
 Frequencies --   3069.8113              3075.2530              3080.6594
 Red. masses --      1.0848                 1.0871                 1.0856
 Frc consts  --      6.0232                 6.0572                 6.0703
 IR Inten    --      8.7541                 5.3521                 0.9943
  Atom  AN      X      Y      Z        X      Y      Z        X      Y      Z
     1   6     0.01  -0.01   0.00     0.01   0.00   0.00     0.05  -0.03   0.01
     2   6     0.00   0.02   0.01     0.00   0.03   0.01     0.00   0.01   0.00
     3   6    -0.04  -0.03  -0.02    -0.04  -0.03  -0.02     0.02   0.01   0.01
     4   6     0.04  -0.03   0.02    -0.04   0.03  -0.02    -0.02   0.01  -0.01
     5   6     0.00   0.02  -0.01     0.00  -0.03   0.01     0.00   0.01   0.00
     6   6    -0.01  -0.01   0.00     0.01   0.00   0.00    -0.05  -0.03  -0.01
     7   1    -0.14   0.08  -0.03    -0.07   0.04  -0.01    -0.57   0.31  -0.13
     8   1     0.06  -0.29  -0.13     0.07  -0.34  -0.15     0.02  -0.09  -0.04
     9   1    -0.06  -0.29   0.13     0.07   0.34  -0.15    -0.02  -0.09   0.04
    10   1     0.14   0.08   0.03    -0.07  -0.04  -0.01     0.57   0.31   0.13
    11   8     0.00   0.00   0.00     0.00   0.00   0.00     0.00   0.00   0.00
    12   1    -0.46   0.34  -0.20     0.44  -0.33   0.19     0.18  -0.13   0.08
    13   1     0.46   0.34   0.20     0.44   0.33   0.19    -0.17  -0.13  -0.07
                     31                     32                     33
                      A                      A                      A
 Frequencies --   3093.4483              3097.0102              3103.7872
 Red. masses --      1.0953                 1.0960                 1.0980
 Frc consts  --      6.1754                 6.1939                 6.2322
 IR Inten    --     29.4210                31.2975                 3.2635
  Atom  AN      X      Y      Z        X      Y      Z        X      Y      Z
     1   6    -0.03   0.02  -0.01     0.02  -0.01   0.00    -0.04   0.02  -0.01
     2   6     0.01  -0.03  -0.01     0.01  -0.05  -0.02    -0.01   0.03   0.02
     3   6    -0.02  -0.01  -0.01    -0.02  -0.01  -0.01     0.02   0.01   0.01
     4   6    -0.02   0.01  -0.01     0.02  -0.01   0.01     0.02  -0.01   0.01
     5   6     0.01   0.03  -0.01    -0.01  -0.05   0.02    -0.01  -0.03   0.02
     6   6    -0.03  -0.02  -0.01    -0.02  -0.01   0.00    -0.04  -0.02  -0.01
     7   1     0.41  -0.23   0.09    -0.17   0.09  -0.04     0.44  -0.24   0.10
     8   1    -0.08   0.37   0.16    -0.12   0.56   0.25     0.08  -0.39  -0.17
     9   1    -0.08  -0.36   0.16     0.12   0.56  -0.25     0.08   0.39  -0.17
    10   1     0.41   0.23   0.09     0.17   0.09   0.04     0.44   0.24   0.10
    11   8     0.00   0.00   0.00     0.00   0.00   0.00     0.00   0.00   0.00
    12   1     0.24  -0.18   0.10    -0.21   0.15  -0.09    -0.16   0.12  -0.07
    13   1     0.24   0.18   0.10     0.21   0.15   0.09    -0.16  -0.12  -0.07

 -------------------
 - Thermochemistry -
 -------------------
 Temperature   298.150 Kelvin.  Pressure   1.00000 Atm.
 Atom     1 has atomic number  6 and mass  12.00000
 Atom     2 has atomic number  6 and mass  12.00000
 Atom     3 has atomic number  6 and mass  12.00000
 Atom     4 has atomic number  6 and mass  12.00000
 Atom     5 has atomic number  6 and mass  12.00000
 Atom     6 has atomic number  6 and mass  12.00000
 Atom     7 has atomic number  1 and mass   1.00783
 Atom     8 has atomic number  1 and mass   1.00783
 Atom     9 has atomic number  1 and mass   1.00783
 Atom    10 has atomic number  1 and mass   1.00783
 Atom    11 has atomic number  8 and mass  15.99491
 Atom    12 has atomic number  1 and mass   1.00783
 Atom    13 has atomic number  1 and mass   1.00783
 Molecular mass:    94.04186 amu.
 Principal axes and moments of inertia in atomic units:
                           1         2         3
     Eigenvalues --   457.89299 484.52097 882.14376
           X            0.99973   0.00001   0.02333
           Y           -0.00001   1.00000   0.00000
           Z           -0.02333   0.00000   0.99973
 This molecule is an asymmetric top.
 Rotational symmetry number  1.
 Warning -- assumption of classical behavior for rotation
           may cause significant error
 Rotational temperatures (Kelvin)      0.18916     0.17876     0.09819
 Rotational constants (GHZ):           3.94140     3.72479     2.04586
 Zero-point vibrational energy     261529.1 (Joules/Mol)
                                   62.50696 (Kcal/Mol)
 Warning -- explicit consideration of   6 degrees of freedom as
           vibrations may cause significant error
 Vibrational temperatures:    230.42   332.51   502.34   547.61   629.21
          (Kelvin)            879.33  1038.76  1048.59  1074.94  1168.73
                             1252.63  1284.32  1303.03  1304.85  1367.42
                             1387.67  1389.10  1528.77  1696.80  1702.30
                             1749.99  1876.11  1970.26  2023.91  2287.84
                             2319.07  2366.79  4416.77  4424.60  4432.38
                             4450.78  4455.90  4465.65
 
 Zero-point correction=                           0.099611 (Hartree/Particle)
 Thermal correction to Energy=                    0.105545
 Thermal correction to Enthalpy=                  0.106490
 Thermal correction to Gibbs Free Energy=         0.070191
 Sum of electronic and zero-point Energies=           -307.073984
 Sum of electronic and thermal Energies=              -307.068050
 Sum of electronic and thermal Enthalpies=            -307.067106
 Sum of electronic and thermal Free Energies=         -307.103404
 
                     E (Thermal)             CV                S
                      KCal/Mol        Cal/Mol-Kelvin    Cal/Mol-Kelvin
 Total                   66.231             22.831             76.396
 Electronic               0.000              0.000              0.000
 Translational            0.889              2.981             39.535
 Rotational               0.889              2.981             26.773
 Vibrational             64.453             16.870             10.088
 Vibration     1          0.622              1.891              2.548
 Vibration     2          0.653              1.793              1.870
 Vibration     3          0.726              1.577              1.170
 Vibration     4          0.750              1.512              1.037
 Vibration     5          0.798              1.389              0.835
 Vibration     6          0.970              1.008              0.431
                       Q            Log10(Q)             Ln(Q)
 Total Bot       0.517972D-32        -32.285694        -74.340558
 Total V=0       0.340544D+14         13.532173         31.158980
 Vib (Bot)       0.912461D-45        -45.039786       -103.707939
 Vib (Bot)    1  0.126226D+01          0.101150          0.232907
 Vib (Bot)    2  0.851842D+00         -0.069641         -0.160355
 Vib (Bot)    3  0.528733D+00         -0.276764         -0.637272
 Vib (Bot)    4  0.474841D+00         -0.323452         -0.744776
 Vib (Bot)    5  0.396134D+00         -0.402158         -0.926003
 Vib (Bot)    6  0.241509D+00         -0.617067         -1.420850
 Vib (V=0)       0.599904D+01          0.778081          1.791599
 Vib (V=0)    1  0.185769D+01          0.268972          0.619332
 Vib (V=0)    2  0.148774D+01          0.172528          0.397260
 Vib (V=0)    3  0.122771D+01          0.089095          0.205149
 Vib (V=0)    4  0.118955D+01          0.075381          0.173572
 Vib (V=0)    5  0.113790D+01          0.056106          0.129188
 Vib (V=0)    6  0.105527D+01          0.023364          0.053798
 Electronic      0.100000D+01          0.000000          0.000000
 Translational   0.358457D+08          7.554437         17.394734
 Rotational      0.158363D+06          5.199654         11.972647
 ***** Axes restored to original set *****
 -------------------------------------------------------------------
 Center     Atomic                   Forces (Hartrees/Bohr)
 Number     Number              X              Y              Z
 -------------------------------------------------------------------
      1        6           0.000007869   -0.000019662    0.000008721
      2        6           0.000000231    0.000004455   -0.000001453
      3        6          -0.000010802    0.000016816   -0.000014525
      4        6          -0.000019349   -0.000018716   -0.000015171
      5        6           0.000011639   -0.000001002   -0.000000790
      6        6           0.000003012    0.000015703    0.000010010
      7        1          -0.000003883   -0.000000377    0.000007195
      8        1           0.000003579    0.000001738   -0.000006192
      9        1           0.000003183   -0.000001537   -0.000005956
     10        1          -0.000001198    0.000003440    0.000006034
     11        8           0.000003412   -0.000000619    0.000009862
     12        1           0.000001056    0.000002579    0.000001158
     13        1           0.000001251   -0.000002818    0.000001107
 -------------------------------------------------------------------
 Cartesian Forces:  Max     0.000019662 RMS     0.000008701

 GradGradGradGradGradGradGradGradGradGradGradGradGradGradGradGradGradGrad
 Berny optimization.
 Search for a local minimum.
 Step number   1 out of a maximum of    2
 All quantities printed in internal units (Hartrees-Bohrs-Radians)
 Second derivative matrix not updated -- analytic derivatives used.
 ITU=  0
     Eigenvalues ---    0.00444   0.00514   0.01076   0.02139   0.02432
     Eigenvalues ---    0.04151   0.04325   0.05000   0.05277   0.06065
     Eigenvalues ---    0.07168   0.07446   0.07876   0.10120   0.12547
     Eigenvalues ---    0.15640   0.16159   0.16657   0.17548   0.21648
     Eigenvalues ---    0.22116   0.31637   0.39909   0.53915   0.63264
     Eigenvalues ---    0.72103   0.80171   0.83813   0.89034   0.92882
     Eigenvalues ---    1.20996   1.28063   1.32036
 Angle between quadratic step and forces=  74.48 degrees.
 Linear search not attempted -- first point.
 B after Tr=    -0.000059   -0.000001    0.000051
         Rot=    1.000000    0.000000    0.000015    0.000000 Ang=   0.00 deg.
 Variable       Old X    -DE/DX   Delta X   Delta X   Delta X     New X
                                 (Linear)    (Quad)   (Total)
    X1       -2.73506   0.00001   0.00000   0.00019   0.00012  -2.73494
    Y1        1.29482  -0.00002   0.00000  -0.00001  -0.00001   1.29481
    Z1        0.28081   0.00001   0.00000   0.00017   0.00014   0.28096
    X2       -0.58617   0.00000   0.00000   0.00001  -0.00003  -0.58621
    Y2        2.85415   0.00000   0.00000   0.00000   0.00000   2.85414
    Z2       -0.45246   0.00000   0.00000  -0.00032  -0.00029  -0.45275
    X3        1.87748  -0.00001   0.00000  -0.00004  -0.00010   1.87738
    Y3        2.17604   0.00002   0.00000  -0.00010  -0.00010   2.17594
    Z3       -0.24007  -0.00001   0.00000  -0.00005   0.00006  -0.24001
    X4        1.87748  -0.00002   0.00000  -0.00005  -0.00010   1.87738
    Y4       -2.17604  -0.00002   0.00000   0.00010   0.00010  -2.17594
    Z4       -0.24007  -0.00002   0.00000  -0.00005   0.00006  -0.24001
    X5       -0.58619   0.00001   0.00000   0.00002  -0.00002  -0.58621
    Y5       -2.85415   0.00000   0.00000   0.00001   0.00001  -2.85414
    Z5       -0.45246   0.00000   0.00000  -0.00032  -0.00029  -0.45275
    X6       -2.73506   0.00000   0.00000   0.00018   0.00012  -2.73494
    Y6       -1.29480   0.00002   0.00000   0.00000   0.00000  -1.29481
    Z6        0.28081   0.00001   0.00000   0.00018   0.00014   0.28096
    X7       -4.52775   0.00000   0.00000   0.00022   0.00014  -4.52760
    Y7        2.28209   0.00000   0.00000  -0.00007  -0.00007   2.28202
    Z7        0.68096   0.00001   0.00000   0.00059   0.00050   0.68147
    X8       -0.97036   0.00000   0.00000   0.00005   0.00003  -0.97033
    Y8        4.72305   0.00000   0.00000  -0.00022  -0.00022   4.72283
    Z8       -1.29484  -0.00001   0.00000  -0.00085  -0.00083  -1.29567
    X9       -0.97037   0.00000   0.00000   0.00005   0.00004  -0.97034
    Y9       -4.72305   0.00000   0.00000   0.00023   0.00023  -4.72282
    Z9       -1.29484  -0.00001   0.00000  -0.00084  -0.00082  -1.29566
   X10       -4.52775   0.00000   0.00000   0.00022   0.00014  -4.52761
   Y10       -2.28209   0.00000   0.00000   0.00009   0.00008  -2.28201
   Z10        0.68098   0.00001   0.00000   0.00058   0.00049   0.68147
   X11        2.67969   0.00000   0.00000  -0.00061  -0.00070   2.67898
   Y11        0.00000   0.00000   0.00000   0.00000   0.00000   0.00000
   Z11        1.00590   0.00001   0.00000   0.00060   0.00073   1.00663
   X12        3.44183   0.00000   0.00000   0.00021   0.00019   3.44202
   Y12       -3.37127   0.00000   0.00000   0.00049   0.00049  -3.37079
   Z12       -0.93955   0.00000   0.00000  -0.00011   0.00005  -0.93950
   X13        3.44183   0.00000   0.00000   0.00022   0.00019   3.44203
   Y13        3.37127   0.00000   0.00000  -0.00049  -0.00049   3.37078
   Z13       -0.93955   0.00000   0.00000  -0.00011   0.00005  -0.93951
         Item               Value     Threshold  Converged?
 Maximum Force            0.000020     0.000450     YES
 RMS     Force            0.000009     0.000300     YES
 Maximum Displacement     0.000825     0.001800     YES
 RMS     Displacement     0.000315     0.001200     YES
 Predicted change in Energy=-1.109946D-08
 Optimization completed.
    -- Stationary point found.
 GradGradGradGradGradGradGradGradGradGradGradGradGradGradGradGradGradGrad

 1\1\GINC-QC0019\Freq\RBP86\SVP\C6H6O1\ELIOT\05-Oct-2018\0\\# freq bp86
 /SVP\\oxepin-bp86.log\\0,1\C,-1.44733,0.68519,0.1486\C,-0.31019,1.5103
 5,-0.23943\C,0.99352,1.15151,-0.12704\C,0.99352,-1.15151,-0.12704\C,-0
 .3102,-1.51035,-0.23943\C,-1.44733,-0.68518,0.1486\H,-2.39598,1.20763,
 0.36035\H,-0.51349,2.49933,-0.6852\H,-0.5135,-2.49933,-0.6852\H,-2.395
 98,-1.20763,0.36036\O,1.41803,0.,0.5323\H,1.82134,-1.784,-0.49719\H,1.
 82134,1.784,-0.49719\\Version=ES64L-G09RevE.01\State=1-A\HF=-307.17359
 55\RMSD=5.300e-09\RMSF=8.701e-06\ZeroPoint=0.0996112\Thermal=0.1055453
 \Dipole=-0.2026236,-0.0000003,-0.4504061\DipoleDeriv=0.0882942,0.08440
 79,-0.0738411,-0.0323516,-0.0064633,0.0161963,-0.090362,-0.0294254,-0.
 1162075,-0.1702055,0.0350589,-0.0082793,0.0407103,-0.016316,-0.1000882
 ,0.0319198,-0.0984812,-0.0943994,0.2934326,-0.1566355,0.01743,-0.17165
 91,0.5441704,-0.3190471,0.0838941,-0.3633575,0.0655769,0.2934376,0.156
 6321,0.0174293,0.1716717,0.5441673,0.3190458,0.0839001,0.3633589,0.065
 5759,-0.1702107,-0.0350522,-0.008277,-0.0407111,-0.0163184,0.1000887,0
 .0319211,0.0984823,-0.0944011,0.0883049,-0.0844087,-0.0738447,0.032356
 4,-0.0064521,-0.0161982,-0.0903725,0.029421,-0.1162052,-0.0636331,0.05
 45595,0.0472747,0.0612587,0.0164105,-0.0096984,0.0481644,0.0013932,0.1
 100432,0.0618533,0.009505,0.0015799,0.0120405,-0.0501543,0.0680952,0.0
 164825,0.1015773,0.0906365,0.0618537,-0.0095054,0.0015799,-0.0120405,-
 0.0501519,-0.0680946,0.0164831,-0.1015773,0.0906375,-0.0636387,-0.0545
 619,0.0472761,-0.0612634,0.0164079,0.0097001,0.0481669,-0.00139,0.1100
 408,-0.3805697,0.0000002,-0.0527228,-0.0000102,-0.9316033,0.0000002,-0
 .3102947,0.0000002,-0.3227461,-0.0194591,0.0702764,0.0421976,0.0621912
 ,-0.021848,-0.0586187,0.0650488,-0.1053036,0.1057245,-0.0194595,-0.070
 2762,0.0421974,-0.0621927,-0.0218489,0.0586188,0.0650484,0.1053022,0.1
 057239\Polar=81.2172983,-0.0000102,81.6855586,-4.3703965,-0.0000047,34
 .6051132\PG=C01 [X(C6H6O1)]\NImag=0\\0.56973847,-0.03563921,0.72838000
 ,-0.11490382,-0.01447200,0.14942689,-0.19058895,-0.04790509,0.03253373
 ,0.73416007,-0.07979784,-0.14213781,0.03688962,-0.06586313,0.54855575,
 0.04746915,0.03307682,-0.07293521,0.00585545,-0.18615755,0.19038253,-0
 .04466961,-0.01575680,0.01021772,-0.44801253,0.09095773,-0.02513818,0.
 78715313,-0.00216620,0.02070688,-0.00826715,0.06707258,-0.10578697,0.0
 2813440,0.00209015,0.43181282,0.01458147,0.01118443,0.00771941,-0.0352
 4535,0.02133372,-0.05340061,-0.01160114,-0.16530577,0.20093368,0.00079
 891,-0.01211064,-0.00546828,-0.00422560,0.00730048,-0.00627014,0.00674
 825,-0.00840847,0.02028156,0.78712669,0.00432685,-0.01185632,-0.007810
 27,-0.00034667,0.00944551,-0.00807858,0.00840850,-0.06934814,0.0186711
 9,-0.00209960,0.43181169,0.01124122,0.01047714,-0.00349508,-0.01569038
 ,0.00334166,0.00040801,0.02028159,-0.01867132,0.00616899,-0.01160399,0
 .16530472,0.20093518,0.00838555,0.03333673,0.00812296,-0.00881357,-0.0
 0379735,0.00176439,-0.00422562,0.00034677,-0.01569029,-0.44798596,-0.0
 6706378,-0.03524277,0.73413371,0.02414509,-0.02631506,-0.00884505,0.00
 379748,-0.00058848,-0.00095846,-0.00730034,0.00944527,-0.00334146,-0.0
 9094911,-0.10578722,-0.02133318,0.06585216,0.54855845,0.00029610,-0.00
 683529,0.00463788,0.00176434,0.00095841,-0.00346462,-0.00627001,0.0080
 7852,0.00040808,-0.02513567,-0.02813404,-0.05340282,0.00585196,0.18615
 805,0.19038455,-0.10148875,-0.01808668,0.00975623,0.00838531,-0.024145
 34,0.00029603,0.00079887,-0.00432698,0.01124124,-0.04466960,0.00216629
 ,0.01458136,-0.19058911,0.07980021,0.04746972,0.56972696,0.01808729,-0
 .43788818,0.00170612,-0.03333671,-0.02631501,0.00683551,0.01211038,-0.
 01185606,-0.01047731,0.01575734,0.02070718,-0.01118435,0.04790705,-0.1
 4214021,-0.03307812,0.03563091,0.72838232,0.00975641,-0.00170585,-0.04
 955210,0.00812290,0.00884512,0.00463799,-0.00546827,0.00781022,-0.0034
 9505,0.01021781,0.00826724,0.00771929,0.03253425,-0.03689069,-0.072935
 22,-0.11490323,0.01447255,0.14942914,-0.24749773,0.11095267,0.04893306
 ,-0.01814482,0.01140917,0.00305848,-0.00036011,-0.00409796,0.00319135,
 -0.00018029,-0.00130157,-0.00090871,0.00264159,0.00000096,0.00175256,0
 .00147671,-0.00320601,0.00056066,0.26164917,0.10745707,-0.10934245,-0.
 02071047,-0.01647291,0.00928095,0.00300819,-0.00202043,-0.00247503,0.0
 0134069,-0.00053158,-0.00070107,-0.00055123,-0.00147536,-0.00392060,0.
 00085700,0.02667518,-0.01216829,-0.00656454,-0.11486326,0.11759770,0.0
 4950245,-0.01766850,-0.04505822,0.00201448,-0.00348766,0.00199524,0.00
 219512,-0.00085756,0.00010346,0.00048154,0.00002047,-0.00246878,0.0026
 8730,0.00081359,0.00937346,-0.00076991,-0.00279329,0.00455814,-0.05410
 213,0.02368213,0.03476304,0.00645604,-0.02166838,0.00855043,-0.0592600
 3,0.04570670,-0.01609937,0.00003062,0.02421921,-0.01247488,-0.00104149
 ,-0.00192803,-0.00133008,0.00015040,0.00034750,0.00037951,-0.00351716,
 -0.00116981,0.00134393,0.00063568,0.00040644,-0.00031910,0.06153430,0.
 00262114,-0.01315378,0.00522052,0.05118055,-0.26106817,0.10342763,-0.0
 0353121,-0.00658490,0.00328983,-0.00062548,0.00097255,0.00092117,0.000
 72516,-0.00000688,0.00007427,-0.00250651,0.00182282,0.00225337,-0.0005
 2089,0.00048203,-0.00100907,-0.04892598,0.27595954,-0.00575640,0.00223
 451,0.00028414,-0.01365935,0.10478429,-0.07704065,-0.00176187,0.002861
 06,-0.00124432,-0.00075767,0.00216368,0.00210779,0.00056025,-0.0006456
 9,-0.00055557,0.00145022,0.00246672,0.00029749,-0.00076010,-0.00014666
 ,-0.00022925,0.02047048,-0.11361289,0.07294547,-0.00351713,0.00116978,
 0.00134391,0.00015039,-0.00034749,0.00037950,-0.00104147,0.00192802,-0
 .00133008,0.00003072,-0.02421910,-0.01247479,-0.05926012,-0.04570697,-
 0.01609947,0.00645613,0.02166821,0.00855032,-0.00025899,0.00094668,-0.
 00085550,0.00012391,-0.00000951,-0.00009549,0.06153416,0.00250649,0.00
 182289,-0.00225337,-0.00072518,-0.00000688,-0.00007426,0.00062549,0.00
 097251,-0.00092117,0.00353111,-0.00658474,-0.00328970,-0.05118055,-0.2
 6106852,-0.10342788,-0.00262131,-0.01315373,-0.00522039,0.00011319,-0.
 00056552,0.00041333,0.00000951,-0.00003323,0.00006865,0.04892623,0.275
 95968,0.00145018,-0.00246673,0.00029751,0.00056026,0.00064569,-0.00055
 558,-0.00075767,-0.00216368,0.00210780,-0.00176195,-0.00286092,-0.0012
 4438,-0.01365924,-0.10478475,-0.07704037,-0.00575649,-0.00223415,0.000
 28410,-0.00000393,-0.00027282,0.00052646,-0.00009549,-0.00006864,0.000
 01345,0.02047058,0.11361293,0.07294524,0.00147665,0.00320586,0.0005607
 3,0.00264165,-0.00000101,0.00175266,-0.00018029,0.00130157,-0.00090872
 ,-0.00036016,0.00409800,0.00319141,-0.01814555,-0.01140919,0.00305887,
 -0.24748571,-0.11094685,0.04893184,0.00075523,0.00014610,-0.00149179,-
 0.00025901,-0.00011321,-0.00000393,0.00063570,0.00052093,-0.00076012,0
 .26163794,-0.02667488,-0.01216791,0.00656459,0.00147538,-0.00392059,-0
 .00085700,0.00053158,-0.00070110,0.00055124,0.00202048,-0.00247496,-0.
 00134068,0.01647279,0.00928084,-0.00300831,-0.10745168,-0.10934201,0.0
 2071046,-0.00014615,0.00077759,0.00036026,-0.00094669,-0.00056553,0.00
 027282,-0.00040641,0.00048203,0.00014663,0.11485762,0.11759695,-0.0007
 7000,0.00279306,0.00455809,0.00268733,-0.00081357,0.00937345,0.0004814
 7,-0.00002043,-0.00246882,0.00219516,0.00085759,0.00010349,0.00201465,
 0.00348767,0.00199546,0.04950154,0.01766869,-0.04506046,-0.00149171,-0
 .00036028,-0.00603118,-0.00085550,-0.00041333,0.00052644,-0.00031909,0
 .00100905,-0.00022925,-0.05410139,-0.02368205,0.03476518,0.00351914,-0
 .00042159,0.00074102,-0.00328995,0.03582041,-0.02284042,-0.08578672,0.
 03496816,-0.03729615,-0.08578672,-0.03496808,-0.03729598,-0.00328986,-
 0.03582007,-0.02284025,0.00351901,0.00042162,0.00074105,0.00020263,0.0
 0036537,0.00064707,-0.00513464,0.00166291,0.00035498,-0.00513470,-0.00
 166288,0.00035499,0.00020263,-0.00036536,0.00064707,0.15764538,-0.0140
 2007,0.00041842,0.00736055,0.02956315,-0.03402605,0.02034136,0.0328240
 1,-0.15070381,0.08172112,-0.03282359,-0.15070293,-0.08172053,-0.029563
 10,-0.03402541,-0.02034080,0.01402012,0.00041800,-0.00736058,0.0013854
 7,0.00092965,0.00050615,0.00405327,0.00218960,0.00137079,-0.00405324,0
 .00218958,-0.00137075,-0.00138547,0.00092966,-0.00050625,-0.00000053,0
 .42383333,-0.01547197,-0.02573385,-0.00123277,0.01848713,0.01783930,-0
 .00747765,-0.05360986,0.09807706,-0.09173427,-0.05360932,-0.09807602,-
 0.09173352,0.01848694,-0.01783928,-0.00747770,-0.01547180,0.02573395,-
 0.00123280,0.00060412,0.00031513,0.00342452,0.00052810,0.00142590,0.00
 584308,0.00052807,-0.00142587,0.00584297,0.00060411,-0.00031512,0.0034
 2450,0.10772429,-0.00000122,0.18316816,-0.00012965,-0.00042891,0.00006
 751,0.00048808,-0.00009989,0.00040251,0.00003742,-0.00044182,-0.001302
 36,-0.21049219,0.11248537,0.06655347,-0.01348954,0.01714241,0.00936981
 ,-0.00248301,-0.00335231,-0.00045520,0.00002097,0.00016551,0.00001990,
 0.00013383,0.00008021,0.00008907,0.00014756,0.00003717,-0.00013020,-0.
 00094006,0.00079882,-0.00000943,0.01166691,-0.00945527,-0.00439991,0.2
 1501743,-0.00194602,-0.00120073,0.00063734,0.00267772,-0.00093190,0.00
 123993,-0.00188668,0.00531644,-0.00653890,0.11705234,-0.12079802,-0.04
 849259,-0.00888277,0.00749969,-0.00006189,-0.00110025,0.00273397,-0.00
 397957,0.00020591,0.00016663,0.00050692,0.00029271,0.00012856,0.000260
 57,0.00039653,-0.00014262,0.00207777,-0.00006845,-0.00006160,0.0004867
 9,0.01029675,-0.03072499,-0.01328215,-0.11698453,0.13890085,0.00225281
 ,0.00274912,-0.00169989,-0.00382330,-0.00234114,0.00113007,0.00462586,
 -0.00180456,-0.00195703,0.06680514,-0.05212955,-0.06314111,-0.00360713
 ,0.00183807,0.00694681,0.00035231,-0.00636715,0.00704936,-0.00013975,-
 0.00007223,-0.00100448,0.00021821,0.00002089,0.00061704,-0.00031620,0.
 00152960,-0.00356498,-0.00069393,0.00052495,0.00004757,0.00453115,-0.0
 1156496,-0.00040721,-0.07020545,0.06738135,0.05576473,-0.00248293,0.00
 335228,-0.00045521,-0.01349007,-0.01714244,0.00936994,-0.21049192,-0.1
 1248502,0.06655333,0.00003742,0.00044182,-0.00130236,0.00048808,0.0000
 9989,0.00040251,-0.00012966,0.00042891,0.00006752,-0.00094003,-0.00079
 883,-0.00000944,0.00014755,-0.00003718,-0.00013019,0.00013383,-0.00008
 021,0.00008907,0.00002096,-0.00016552,0.00001989,0.01166689,0.00945525
 ,-0.00439991,0.00002224,-0.00005326,0.00000028,0.21501765,0.00110029,0
 .00273406,0.00397956,0.00888284,0.00749965,0.00006202,-0.11705238,-0.1
 2079791,0.04849238,0.00188670,0.00531647,0.00653888,-0.00267775,-0.000
 93187,-0.00123991,0.00194604,-0.00120078,-0.00063736,0.00006846,-0.000
 06158,-0.00048678,-0.00039646,-0.00014262,-0.00207785,-0.00029270,0.00
 012856,-0.00026056,-0.00020592,0.00016663,-0.00050692,-0.01029670,-0.0
 3072506,0.01328215,0.00005326,-0.00088629,0.00023560,0.11698431,0.1389
 0074,0.00035237,0.00636716,0.00704935,-0.00360725,-0.00183790,0.006947
 04,0.06680522,0.05212918,-0.06314132,0.00462580,0.00180448,-0.00195704
 ,-0.00382327,0.00234117,0.00113006,0.00225279,-0.00274916,-0.00169989,
 -0.00069390,-0.00052492,0.00004759,-0.00031624,-0.00152966,-0.00356510
 ,0.00021822,-0.00002090,0.00061704,-0.00013975,0.00007223,-0.00100448,
 0.00453117,0.01156511,-0.00040729,0.00000028,-0.00023559,0.00021911,-0
 .07020544,-0.06738121,0.05576492\\-0.00000787,0.00001966,-0.00000872,-
 0.00000023,-0.00000446,0.00000145,0.00001080,-0.00001682,0.00001453,0.
 00001935,0.00001872,0.00001517,-0.00001164,0.00000100,0.00000079,-0.00
 000301,-0.00001570,-0.00001001,0.00000388,0.00000038,-0.00000720,-0.00
 000358,-0.00000174,0.00000619,-0.00000318,0.00000154,0.00000596,0.0000
 0120,-0.00000344,-0.00000603,-0.00000341,0.00000062,-0.00000986,-0.000
 00106,-0.00000258,-0.00000116,-0.00000125,0.00000282,-0.00000111\\\@


 WHEN YOU'VE SEEN ONE NUCLEAR WAR YOU'VE SEEN THEM ALL.
 Job cpu time:       0 days  0 hours  3 minutes 25.3 seconds.
 File lengths (MBytes):  RWF=     30 Int=      0 D2E=      0 Chk=      2 Scr=      1
 Normal termination of Gaussian 09 at Fri Oct  5 10:19:15 2018.
