 Entering Gaussian System, Link 0=/home/eliot/software/g09E01/g09
 Initial command:
 /home/eliot/software/g09E01/l1.exe "/tmp/Gau-5943.inp" -scrdir="/tmp/"
 Entering Link 1 = /home/eliot/software/g09E01/l1.exe PID=      5945.
  
 Copyright (c) 1988,1990,1992,1993,1995,1998,2003,2009,2015,
            Gaussian, Inc.  All Rights Reserved.
  
 This is part of the Gaussian(R) 09 program.  It is based on
 the Gaussian(R) 03 system (copyright 2003, Gaussian, Inc.),
 the Gaussian(R) 98 system (copyright 1998, Gaussian, Inc.),
 the Gaussian(R) 94 system (copyright 1995, Gaussian, Inc.),
 the Gaussian 92(TM) system (copyright 1992, Gaussian, Inc.),
 the Gaussian 90(TM) system (copyright 1990, Gaussian, Inc.),
 the Gaussian 88(TM) system (copyright 1988, Gaussian, Inc.),
 the Gaussian 86(TM) system (copyright 1986, Carnegie Mellon
 University), and the Gaussian 82(TM) system (copyright 1983,
 Carnegie Mellon University). Gaussian is a federally registered
 trademark of Gaussian, Inc.
  
 This software contains proprietary and confidential information,
 including trade secrets, belonging to Gaussian, Inc.
  
 This software is provided under written license and may be
 used, copied, transmitted, or stored only in accord with that
 written license.
  
 The following legend is applicable only to US Government
 contracts under FAR:
  
                    RESTRICTED RIGHTS LEGEND
  
 Use, reproduction and disclosure by the US Government is
 subject to restrictions as set forth in subparagraphs (a)
 and (c) of the Commercial Computer Software - Restricted
 Rights clause in FAR 52.227-19.
  
 Gaussian, Inc.
 340 Quinnipiac St., Bldg. 40, Wallingford CT 06492
  
  
 ---------------------------------------------------------------
 Warning -- This program may not be used in any manner that
 competes with the business of Gaussian, Inc. or will provide
 assistance to any competitor of Gaussian, Inc.  The licensee
 of this program is prohibited from giving any competitor of
 Gaussian, Inc. access to this program.  By using this program,
 the user acknowledges that Gaussian, Inc. is engaged in the
 business of creating and licensing software in the field of
 computational chemistry and represents and warrants to the
 licensee that it is not a competitor of Gaussian, Inc. and that
 it will not use this program in any manner prohibited above.
 ---------------------------------------------------------------
  

 Cite this work as:
 Gaussian 09, Revision E.01,
 M. J. Frisch, G. W. Trucks, H. B. Schlegel, G. E. Scuseria, 
 M. A. Robb, J. R. Cheeseman, G. Scalmani, V. Barone, B. Mennucci, 
 G. A. Petersson, H. Nakatsuji, M. Caricato, X. Li, H. P. Hratchian, 
 A. F. Izmaylov, J. Bloino, G. Zheng, J. L. Sonnenberg, M. Hada, 
 M. Ehara, K. Toyota, R. Fukuda, J. Hasegawa, M. Ishida, T. Nakajima, 
 Y. Honda, O. Kitao, H. Nakai, T. Vreven, J. A. Montgomery, Jr., 
 J. E. Peralta, F. Ogliaro, M. Bearpark, J. J. Heyd, E. Brothers, 
 K. N. Kudin, V. N. Staroverov, T. Keith, R. Kobayashi, J. Normand, 
 K. Raghavachari, A. Rendell, J. C. Burant, S. S. Iyengar, J. Tomasi, 
 M. Cossi, N. Rega, J. M. Millam, M. Klene, J. E. Knox, J. B. Cross, 
 V. Bakken, C. Adamo, J. Jaramillo, R. Gomperts, R. E. Stratmann, 
 O. Yazyev, A. J. Austin, R. Cammi, C. Pomelli, J. W. Ochterski, 
 R. L. Martin, K. Morokuma, V. G. Zakrzewski, G. A. Voth, 
 P. Salvador, J. J. Dannenberg, S. Dapprich, A. D. Daniels, 
 O. Farkas, J. B. Foresman, J. V. Ortiz, J. Cioslowski, 
 and D. J. Fox, Gaussian, Inc., Wallingford CT, 2013.
 
 ******************************************
 Gaussian 09:  ES64L-G09RevE.01 30-Nov-2015
                 5-Oct-2018 
 ******************************************
 ---------------
 # opt hf/6-31g*
 ---------------
 1/18=20,19=15,38=1/1,3;
 2/9=110,12=2,17=6,18=5,40=1/2;
 3/5=1,6=6,7=1,11=9,16=1,25=1,30=1,71=1/1,2,3;
 4//1;
 5/5=2,38=5/2;
 6/7=2,8=2,9=2,10=2,28=1/1;
 7//1,2,3,16;
 1/18=20,19=15/3(2);
 2/9=110/2;
 99//99;
 2/9=110/2;
 3/5=1,6=6,7=1,11=9,16=1,25=1,30=1,71=1/1,2,3;
 4/5=5,16=3,69=1/1;
 5/5=2,38=5/2;
 7//1,2,3,16;
 1/18=20,19=15/3(-5);
 2/9=110/2;
 6/7=2,8=2,9=2,10=2,19=2,28=1/1;
 99/9=1/99;
 ----------
 oxepin.log
 ----------
 Symbolic Z-matrix:
 Charge =  0 Multiplicity = 1
 C                     1.44574  -0.67795   0.14139 
 C                     0.30665  -1.50991  -0.23243 
 C                    -0.98606  -1.16117  -0.11528 
 C                    -0.98603   1.16118  -0.11528 
 C                     0.30668   1.50991  -0.23243 
 C                     1.44575   0.67793   0.14139 
 H                     2.38326  -1.19806   0.36305 
 H                     0.51183  -2.49708  -0.65856 
 H                     0.51188   2.49707  -0.65856 
 H                     2.38328   1.19802   0.36305 
 O                    -1.42244   0.00001   0.49634 
 H                    -1.80353   1.80882  -0.45193 
 H                    -1.80356  -1.80879  -0.45193 
 

 GradGradGradGradGradGradGradGradGradGradGradGradGradGradGradGradGradGrad
 Berny optimization.
 Initialization pass.
                           ----------------------------
                           !    Initial Parameters    !
                           ! (Angstroms and Degrees)  !
 --------------------------                            --------------------------
 ! Name  Definition              Value          Derivative Info.                !
 --------------------------------------------------------------------------------
 ! R1    R(1,2)                  1.4593         estimate D2E/DX2                !
 ! R2    R(1,6)                  1.3559         estimate D2E/DX2                !
 ! R3    R(1,7)                  1.0948         estimate D2E/DX2                !
 ! R4    R(2,3)                  1.344          estimate D2E/DX2                !
 ! R5    R(2,8)                  1.0946         estimate D2E/DX2                !
 ! R6    R(3,11)                 1.3831         estimate D2E/DX2                !
 ! R7    R(3,13)                 1.0959         estimate D2E/DX2                !
 ! R8    R(4,5)                  1.344          estimate D2E/DX2                !
 ! R9    R(4,11)                 1.3831         estimate D2E/DX2                !
 ! R10   R(4,12)                 1.0959         estimate D2E/DX2                !
 ! R11   R(5,6)                  1.4593         estimate D2E/DX2                !
 ! R12   R(5,9)                  1.0946         estimate D2E/DX2                !
 ! R13   R(6,10)                 1.0948         estimate D2E/DX2                !
 ! A1    A(2,1,6)              124.7595         estimate D2E/DX2                !
 ! A2    A(2,1,7)              116.7096         estimate D2E/DX2                !
 ! A3    A(6,1,7)              118.3636         estimate D2E/DX2                !
 ! A4    A(1,2,3)              125.4875         estimate D2E/DX2                !
 ! A5    A(1,2,8)              117.8767         estimate D2E/DX2                !
 ! A6    A(3,2,8)              116.6295         estimate D2E/DX2                !
 ! A7    A(2,3,11)             124.0461         estimate D2E/DX2                !
 ! A8    A(2,3,13)             122.5035         estimate D2E/DX2                !
 ! A9    A(11,3,13)            113.3669         estimate D2E/DX2                !
 ! A10   A(5,4,11)             124.047          estimate D2E/DX2                !
 ! A11   A(5,4,12)             122.5032         estimate D2E/DX2                !
 ! A12   A(11,4,12)            113.3663         estimate D2E/DX2                !
 ! A13   A(4,5,6)              125.4868         estimate D2E/DX2                !
 ! A14   A(4,5,9)              116.6302         estimate D2E/DX2                !
 ! A15   A(6,5,9)              117.8766         estimate D2E/DX2                !
 ! A16   A(1,6,5)              124.7597         estimate D2E/DX2                !
 ! A17   A(1,6,10)             118.3633         estimate D2E/DX2                !
 ! A18   A(5,6,10)             116.7097         estimate D2E/DX2                !
 ! A19   A(3,11,4)             114.1897         estimate D2E/DX2                !
 ! D1    D(6,1,2,3)            -28.0366         estimate D2E/DX2                !
 ! D2    D(6,1,2,8)            151.0159         estimate D2E/DX2                !
 ! D3    D(7,1,2,3)            156.7568         estimate D2E/DX2                !
 ! D4    D(7,1,2,8)            -24.1907         estimate D2E/DX2                !
 ! D5    D(2,1,6,5)             -0.0001         estimate D2E/DX2                !
 ! D6    D(2,1,6,10)          -175.1336         estimate D2E/DX2                !
 ! D7    D(7,1,6,5)            175.1335         estimate D2E/DX2                !
 ! D8    D(7,1,6,10)             0.0            estimate D2E/DX2                !
 ! D9    D(1,2,3,11)            -6.2433         estimate D2E/DX2                !
 ! D10   D(1,2,3,13)           177.3004         estimate D2E/DX2                !
 ! D11   D(8,2,3,11)           174.6936         estimate D2E/DX2                !
 ! D12   D(8,2,3,13)            -1.7627         estimate D2E/DX2                !
 ! D13   D(2,3,11,4)            62.1066         estimate D2E/DX2                !
 ! D14   D(13,3,11,4)         -121.1487         estimate D2E/DX2                !
 ! D15   D(11,4,5,6)             6.2437         estimate D2E/DX2                !
 ! D16   D(11,4,5,9)          -174.6936         estimate D2E/DX2                !
 ! D17   D(12,4,5,6)          -177.3006         estimate D2E/DX2                !
 ! D18   D(12,4,5,9)             1.7621         estimate D2E/DX2                !
 ! D19   D(5,4,11,3)           -62.1072         estimate D2E/DX2                !
 ! D20   D(12,4,11,3)          121.1487         estimate D2E/DX2                !
 ! D21   D(4,5,6,1)             28.0365         estimate D2E/DX2                !
 ! D22   D(4,5,6,10)          -156.7571         estimate D2E/DX2                !
 ! D23   D(9,5,6,1)           -151.0156         estimate D2E/DX2                !
 ! D24   D(9,5,6,10)            24.1908         estimate D2E/DX2                !
 --------------------------------------------------------------------------------
 Trust Radius=3.00D-01 FncErr=1.00D-07 GrdErr=1.00D-07
 Number of steps in this run=     66 maximum allowed number of steps=    100.
 GradGradGradGradGradGradGradGradGradGradGradGradGradGradGradGradGradGrad

                          Input orientation:                          
 ---------------------------------------------------------------------
 Center     Atomic      Atomic             Coordinates (Angstroms)
 Number     Number       Type             X           Y           Z
 ---------------------------------------------------------------------
      1          6           0        1.445740   -0.677950    0.141390
      2          6           0        0.306650   -1.509910   -0.232430
      3          6           0       -0.986060   -1.161170   -0.115280
      4          6           0       -0.986030    1.161180   -0.115280
      5          6           0        0.306680    1.509910   -0.232430
      6          6           0        1.445750    0.677930    0.141390
      7          1           0        2.383260   -1.198060    0.363050
      8          1           0        0.511830   -2.497080   -0.658560
      9          1           0        0.511880    2.497070   -0.658560
     10          1           0        2.383280    1.198020    0.363050
     11          8           0       -1.422440    0.000010    0.496340
     12          1           0       -1.803530    1.808820   -0.451930
     13          1           0       -1.803560   -1.808790   -0.451930
 ---------------------------------------------------------------------
                    Distance matrix (angstroms):
                    1          2          3          4          5
     1  C    0.000000
     2  C    1.459255   0.000000
     3  C    2.492595   1.344040   0.000000
     4  C    3.059703   2.969759   2.322350   0.000000
     5  C    2.494781   3.019820   2.969776   1.344037   0.000000
     6  C    1.355880   2.494781   3.059717   2.492582   1.459251
     7  H    1.094802   2.182695   3.403304   4.140885   3.464085
     8  H    2.195755   1.094619   2.079299   3.990188   4.034804
     9  H    3.404815   4.034798   3.990200   2.079300   1.094613
    10  H    2.108881   3.464083   4.140897   3.403294   2.182691
    11  O    2.968514   2.408468   1.383057   1.383058   2.408477
    12  H    4.134466   3.938910   3.098779   1.095937   2.142548
    13  H    3.491243   2.142544   1.095925   3.098776   3.938916
                    6          7          8          9         10
     6  C    0.000000
     7  H    2.108885   0.000000
     8  H    3.404822   2.496676   0.000000
     9  H    2.195747   4.266115   4.994150   0.000000
    10  H    1.094801   2.396080   4.266120   2.496669   0.000000
    11  O    2.968515   3.992053   3.363131   3.363138   3.992054
    12  H    3.491241   5.218690   4.893298   2.424357   4.308903
    13  H    4.134467   4.308903   2.424349   4.893300   5.218690
                   11         12         13
    11  O    0.000000
    12  H    2.077556   0.000000
    13  H    2.077553   3.617610   0.000000
 Stoichiometry    C6H6O
 Framework group  C1[X(C6H6O)]
 Deg. of freedom    33
 Full point group                 C1      NOp   1
 Largest Abelian subgroup         C1      NOp   1
 Largest concise Abelian subgroup C1      NOp   1
                         Standard orientation:                         
 ---------------------------------------------------------------------
 Center     Atomic      Atomic             Coordinates (Angstroms)
 Number     Number       Type             X           Y           Z
 ---------------------------------------------------------------------
      1          6           0       -1.445640    0.678163    0.141390
      2          6           0       -0.306427    1.509955   -0.232430
      3          6           0        0.986232    1.161025   -0.115280
      4          6           0        0.985859   -1.161325   -0.115280
      5          6           0       -0.306902   -1.509865   -0.232430
      6          6           0       -1.445850   -0.677717    0.141390
      7          1           0       -2.383083    1.198411    0.363050
      8          1           0       -0.511461    2.497155   -0.658560
      9          1           0       -0.512248   -2.496995   -0.658560
     10          1           0       -2.383456   -1.197669    0.363050
     11          8           0        1.422440   -0.000220    0.496340
     12          1           0        1.803264   -1.809086   -0.451930
     13          1           0        1.803827    1.808524   -0.451930
 ---------------------------------------------------------------------
 Rotational constants (GHZ):      3.9585310      3.7667904      2.0475326
 Standard basis: 6-31G(d) (6D, 7F)
 There are   117 symmetry adapted cartesian basis functions of A   symmetry.
 There are   117 symmetry adapted basis functions of A   symmetry.
   117 basis functions,   220 primitive gaussians,   117 cartesian basis functions
    25 alpha electrons       25 beta electrons
       nuclear repulsion energy       274.2612648580 Hartrees.
 NAtoms=   13 NActive=   13 NUniq=   13 SFac= 1.00D+00 NAtFMM=   60 NAOKFM=F Big=F
 Integral buffers will be    131072 words long.
 Raffenetti 1 integral format.
 Two-electron integral symmetry is turned on.
 One-electron integrals computed using PRISM.
 NBasis=   117 RedAO= T EigKep=  1.26D-03  NBF=   117
 NBsUse=   117 1.00D-06 EigRej= -1.00D+00 NBFU=   117
 ExpMin= 1.61D-01 ExpMax= 5.48D+03 ExpMxC= 8.25D+02 IAcc=1 IRadAn=         1 AccDes= 0.00D+00
 Harris functional with IExCor=  205 and IRadAn=       1 diagonalized for initial guess.
 HarFok:  IExCor=  205 AccDes= 0.00D+00 IRadAn=         1 IDoV= 1 UseB2=F ITyADJ=14
 ICtDFT=  3500011 ScaDFX=  1.000000  1.000000  1.000000  1.000000
 FoFCou: FMM=F IPFlag=           0 FMFlag=      100000 FMFlg1=           0
         NFxFlg=           0 DoJE=T BraDBF=F KetDBF=T FulRan=T
         wScrn=  0.000000 ICntrl=     500 IOpCl=  0 I1Cent=   200000004 NGrid=           0
         NMat0=    1 NMatS0=      1 NMatT0=    0 NMatD0=    1 NMtDS0=    0 NMtDT0=    0
 Petite list used in FoFCou.
 Keep R1 ints in memory in canonical form, NReq=24775322.
 Requested convergence on RMS density matrix=1.00D-08 within 128 cycles.
 Requested convergence on MAX density matrix=1.00D-06.
 Requested convergence on             energy=1.00D-06.
 No special actions if energy rises.
 SCF Done:  E(RHF) =  -305.485653565     A.U. after   12 cycles
            NFock= 12  Conv=0.99D-08     -V/T= 2.0026

 **********************************************************************

            Population analysis using the SCF density.

 **********************************************************************

 Orbital symmetries:
       Occupied  (A) (A) (A) (A) (A) (A) (A) (A) (A) (A) (A) (A)
                 (A) (A) (A) (A) (A) (A) (A) (A) (A) (A) (A) (A)
                 (A)
       Virtual   (A) (A) (A) (A) (A) (A) (A) (A) (A) (A) (A) (A)
                 (A) (A) (A) (A) (A) (A) (A) (A) (A) (A) (A) (A)
                 (A) (A) (A) (A) (A) (A) (A) (A) (A) (A) (A) (A)
                 (A) (A) (A) (A) (A) (A) (A) (A) (A) (A) (A) (A)
                 (A) (A) (A) (A) (A) (A) (A) (A) (A) (A) (A) (A)
                 (A) (A) (A) (A) (A) (A) (A) (A) (A) (A) (A) (A)
                 (A) (A) (A) (A) (A) (A) (A) (A) (A) (A) (A) (A)
                 (A) (A) (A) (A) (A) (A) (A) (A)
 The electronic state is 1-A.
 Alpha  occ. eigenvalues --  -20.59106 -11.29897 -11.29897 -11.24281 -11.24134
 Alpha  occ. eigenvalues --  -11.23588 -11.23588  -1.41175  -1.09786  -1.05857
 Alpha  occ. eigenvalues --   -0.95323  -0.88622  -0.74734  -0.74649  -0.70932
 Alpha  occ. eigenvalues --   -0.63092  -0.62748  -0.61006  -0.58639  -0.54430
 Alpha  occ. eigenvalues --   -0.50167  -0.47511  -0.43403  -0.37234  -0.29295
 Alpha virt. eigenvalues --    0.10603   0.19422   0.23704   0.26388   0.28908
 Alpha virt. eigenvalues --    0.29145   0.32016   0.32822   0.33461   0.33663
 Alpha virt. eigenvalues --    0.46152   0.49175   0.50875   0.56254   0.63837
 Alpha virt. eigenvalues --    0.68866   0.70113   0.72550   0.76106   0.77402
 Alpha virt. eigenvalues --    0.79154   0.80564   0.81395   0.82455   0.88092
 Alpha virt. eigenvalues --    0.88590   0.88990   0.91157   0.94818   1.00697
 Alpha virt. eigenvalues --    1.07812   1.10620   1.10645   1.11710   1.12757
 Alpha virt. eigenvalues --    1.14818   1.16146   1.17346   1.21129   1.23356
 Alpha virt. eigenvalues --    1.30060   1.30284   1.32098   1.39551   1.39820
 Alpha virt. eigenvalues --    1.42732   1.52366   1.61936   1.64138   1.68027
 Alpha virt. eigenvalues --    1.71957   1.75771   1.81515   1.84788   1.91213
 Alpha virt. eigenvalues --    1.93752   2.02401   2.08594   2.10163   2.17114
 Alpha virt. eigenvalues --    2.20465   2.23643   2.25186   2.31497   2.35604
 Alpha virt. eigenvalues --    2.41785   2.45736   2.45765   2.52272   2.56543
 Alpha virt. eigenvalues --    2.56646   2.68196   2.74454   2.80585   2.87523
 Alpha virt. eigenvalues --    2.90065   2.92337   2.95644   3.05825   3.10502
 Alpha virt. eigenvalues --    3.12210   3.23673   3.38234   3.43916   3.64521
 Alpha virt. eigenvalues --    4.40980   4.49325   4.55443   4.65810   4.67827
 Alpha virt. eigenvalues --    4.83150   4.99622
          Condensed to atoms (all electrons):
               1          2          3          4          5          6
     1  C    4.913313   0.388708  -0.051799  -0.005296  -0.050178   0.660814
     2  C    0.388708   5.045384   0.641272  -0.005296  -0.008269  -0.050179
     3  C   -0.051799   0.641272   4.672101  -0.012603  -0.005296  -0.005295
     4  C   -0.005296  -0.005296  -0.012603   4.672102   0.641270  -0.051800
     5  C   -0.050178  -0.008269  -0.005296   0.641270   5.045382   0.388708
     6  C    0.660814  -0.050179  -0.005295  -0.051800   0.388708   4.913314
     7  H    0.386316  -0.035726   0.002206   0.000056   0.002784  -0.031838
     8  H   -0.028960   0.374026  -0.026506  -0.000091  -0.000044   0.002135
     9  H    0.002135  -0.000044  -0.000091  -0.026505   0.374027  -0.028961
    10  H   -0.031839   0.002784   0.000056   0.002206  -0.035727   0.386316
    11  O    0.000036  -0.059601   0.244903   0.244903  -0.059599   0.000037
    12  H   -0.000081  -0.000207   0.003759   0.401344  -0.056195   0.002797
    13  H    0.002797  -0.056194   0.401344   0.003759  -0.000207  -0.000081
               7          8          9         10         11         12
     1  C    0.386316  -0.028960   0.002135  -0.031839   0.000036  -0.000081
     2  C   -0.035726   0.374026  -0.000044   0.002784  -0.059601  -0.000207
     3  C    0.002206  -0.026506  -0.000091   0.000056   0.244903   0.003759
     4  C    0.000056  -0.000091  -0.026505   0.002206   0.244903   0.401344
     5  C    0.002784  -0.000044   0.374027  -0.035727  -0.059599  -0.056195
     6  C   -0.031838   0.002135  -0.028961   0.386316   0.000037   0.002797
     7  H    0.484028  -0.000846  -0.000100  -0.002713   0.000032   0.000004
     8  H   -0.000846   0.476053   0.000007  -0.000100   0.002140   0.000011
     9  H   -0.000100   0.000007   0.476049  -0.000846   0.002140   0.000375
    10  H   -0.002713  -0.000100  -0.000846   0.484029   0.000032  -0.000067
    11  O    0.000032   0.002140   0.002140   0.000032   8.325309  -0.041148
    12  H    0.000004   0.000011   0.000375  -0.000067  -0.041148   0.491229
    13  H   -0.000067   0.000375   0.000011   0.000004  -0.041148   0.000155
              13
     1  C    0.002797
     2  C   -0.056194
     3  C    0.401344
     4  C    0.003759
     5  C   -0.000207
     6  C   -0.000081
     7  H   -0.000067
     8  H    0.000375
     9  H    0.000011
    10  H    0.000004
    11  O   -0.041148
    12  H    0.000155
    13  H    0.491225
 Mulliken charges:
               1
     1  C   -0.185966
     2  C   -0.236658
     3  C    0.135950
     4  C    0.135950
     5  C   -0.236655
     6  C   -0.185966
     7  H    0.195864
     8  H    0.201800
     9  H    0.201803
    10  H    0.195864
    11  O   -0.618036
    12  H    0.198024
    13  H    0.198027
 Sum of Mulliken charges =   0.00000
 Mulliken charges with hydrogens summed into heavy atoms:
               1
     1  C    0.009899
     2  C   -0.034858
     3  C    0.333977
     4  C    0.333975
     5  C   -0.034853
     6  C    0.009897
    11  O   -0.618036
 Electronic spatial extent (au):  <R**2>=            616.0448
 Charge=              0.0000 electrons
 Dipole moment (field-independent basis, Debye):
    X=             -0.5991    Y=              0.0001    Z=             -1.3310  Tot=              1.4596
 Quadrupole moment (field-independent basis, Debye-Ang):
   XX=            -38.0753   YY=            -35.1513   ZZ=            -44.7394
   XY=              0.0005   XZ=             -2.7003   YZ=              0.0004
 Traceless Quadrupole moment (field-independent basis, Debye-Ang):
   XX=              1.2467   YY=              4.1707   ZZ=             -5.4174
   XY=              0.0005   XZ=             -2.7003   YZ=              0.0004
 Octapole moment (field-independent basis, Debye-Ang**2):
  XXX=              1.7003  YYY=             -0.0014  ZZZ=              2.1585  XYY=              2.9439
  XXY=              0.0008  XXZ=             -1.1578  XZZ=              2.6942  YZZ=             -0.0004
  YYZ=             -5.6115  XYZ=             -0.0008
 Hexadecapole moment (field-independent basis, Debye-Ang**3):
 XXXX=           -359.1966 YYYY=           -360.2584 ZZZZ=            -67.7103 XXXY=              0.0056
 XXXZ=            -11.7304 YYYX=             -0.0061 YYYZ=              0.0007 ZZZX=              2.9494
 ZZZY=             -0.0004 XXYY=           -107.1480 XXZZ=            -78.3724 YYZZ=            -76.8716
 XXYZ=              0.0014 YYXZ=             -1.3618 ZZXY=              0.0001
 N-N= 2.742612648580D+02 E-N=-1.262519353808D+03  KE= 3.046873713655D+02
 Calling FoFJK, ICntrl=      2127 FMM=F ISym2X=0 I1Cent= 0 IOpClX= 0 NMat=1 NMatS=1 NMatT=0.
 ***** Axes restored to original set *****
 -------------------------------------------------------------------
 Center     Atomic                   Forces (Hartrees/Bohr)
 Number     Number              X              Y              Z
 -------------------------------------------------------------------
      1        6           0.012109716    0.022529280    0.001875305
      2        6          -0.026366134   -0.005330645   -0.002163488
      3        6           0.012513230   -0.007785947   -0.002195431
      4        6           0.012500230    0.007792260   -0.002197712
      5        6          -0.026365261    0.005325824   -0.002161997
      6        6           0.012113551   -0.022531361    0.001875989
      7        1          -0.011723391    0.006401701   -0.001816082
      8        1          -0.002440591    0.012442413    0.004557075
      9        1          -0.002441370   -0.012439166    0.004555996
     10        1          -0.011722864   -0.006400828   -0.001815959
     11        8           0.008499539    0.000001072   -0.010980868
     12        1           0.011664603   -0.010021355    0.005234513
     13        1           0.011658743    0.010016754    0.005232658
 -------------------------------------------------------------------
 Cartesian Forces:  Max     0.026366134 RMS     0.010934145

 GradGradGradGradGradGradGradGradGradGradGradGradGradGradGradGradGradGrad
 Berny optimization.
 FormGI is forming the generalized inverse of G from B-inverse, IUseBI=4.
 Internal  Forces:  Max     0.029465164 RMS     0.008554883
 Search for a local minimum.
 Step number   1 out of a maximum of   66
 All quantities printed in internal units (Hartrees-Bohrs-Radians)
 Mixed Optimization -- RFO/linear search
 Second derivative matrix not updated -- first step.
 ITU=  0
     Eigenvalues ---    0.01666   0.01817   0.02059   0.02096   0.02175
     Eigenvalues ---    0.02331   0.02556   0.02574   0.02721   0.04146
     Eigenvalues ---    0.15941   0.15964   0.15980   0.15986   0.15998
     Eigenvalues ---    0.15999   0.19143   0.20038   0.21905   0.22174
     Eigenvalues ---    0.34136   0.34137   0.34264   0.34264   0.34284
     Eigenvalues ---    0.34285   0.35594   0.36251   0.46017   0.46590
     Eigenvalues ---    0.52620   0.53236   0.56186
 RFO step:  Lambda=-8.81021794D-03 EMin= 1.66629245D-02
 Linear search not attempted -- first point.
 Iteration  1 RMS(Cart)=  0.02888920 RMS(Int)=  0.00017314
 Iteration  2 RMS(Cart)=  0.00017570 RMS(Int)=  0.00001562
 Iteration  3 RMS(Cart)=  0.00000003 RMS(Int)=  0.00001562
 Variable       Old X    -DE/DX   Delta X   Delta X   Delta X     New X
                                 (Linear)    (Quad)   (Total)
    R1        2.75759   0.00047   0.00000   0.00173   0.00172   2.75932
    R2        2.56224  -0.02866   0.00000  -0.05183  -0.05184   2.51040
    R3        2.06888  -0.01345   0.00000  -0.03827  -0.03827   2.03061
    R4        2.53987  -0.02947   0.00000  -0.05167  -0.05166   2.48820
    R5        2.06853  -0.01345   0.00000  -0.03826  -0.03826   2.03027
    R6        2.61360  -0.01184   0.00000  -0.02450  -0.02450   2.58910
    R7        2.07100  -0.01622   0.00000  -0.04633  -0.04633   2.02467
    R8        2.53986  -0.02946   0.00000  -0.05166  -0.05166   2.48820
    R9        2.61360  -0.01185   0.00000  -0.02451  -0.02450   2.58910
   R10        2.07102  -0.01623   0.00000  -0.04635  -0.04635   2.02467
   R11        2.75758   0.00048   0.00000   0.00174   0.00173   2.75932
   R12        2.06852  -0.01345   0.00000  -0.03825  -0.03825   2.03027
   R13        2.06887  -0.01345   0.00000  -0.03826  -0.03826   2.03061
    A1        2.17746  -0.00024   0.00000  -0.00060  -0.00064   2.17683
    A2        2.03697   0.00020   0.00000   0.00126   0.00122   2.03819
    A3        2.06584   0.00008   0.00000   0.00051   0.00047   2.06631
    A4        2.19017  -0.00066   0.00000  -0.00413  -0.00413   2.18604
    A5        2.05734   0.00026   0.00000   0.00161   0.00160   2.05894
    A6        2.03557   0.00040   0.00000   0.00247   0.00246   2.03803
    A7        2.16501   0.00021   0.00000  -0.00231  -0.00230   2.16271
    A8        2.13809   0.00056   0.00000   0.00521   0.00520   2.14329
    A9        1.97863  -0.00077   0.00000  -0.00283  -0.00284   1.97579
   A10        2.16503   0.00021   0.00000  -0.00233  -0.00232   2.16271
   A11        2.13808   0.00057   0.00000   0.00521   0.00521   2.14329
   A12        1.97862  -0.00077   0.00000  -0.00282  -0.00283   1.97579
   A13        2.19016  -0.00066   0.00000  -0.00412  -0.00412   2.18604
   A14        2.03558   0.00040   0.00000   0.00245   0.00245   2.03803
   A15        2.05734   0.00026   0.00000   0.00161   0.00160   2.05894
   A16        2.17747  -0.00024   0.00000  -0.00060  -0.00064   2.17683
   A17        2.06583   0.00008   0.00000   0.00051   0.00047   2.06630
   A18        2.03697   0.00020   0.00000   0.00126   0.00122   2.03819
   A19        1.99299   0.00130   0.00000   0.00256   0.00255   1.99553
    D1       -0.48933   0.00008   0.00000  -0.00596  -0.00594  -0.49527
    D2        2.63572   0.00001   0.00000  -0.01058  -0.01057   2.62516
    D3        2.73592  -0.00051   0.00000  -0.02269  -0.02269   2.71323
    D4       -0.42221  -0.00058   0.00000  -0.02732  -0.02732  -0.44952
    D5        0.00000   0.00000   0.00000   0.00000   0.00000   0.00000
    D6       -3.05666  -0.00061   0.00000  -0.01702  -0.01703  -3.07369
    D7        3.05666   0.00061   0.00000   0.01702   0.01703   3.07369
    D8        0.00000   0.00000   0.00000   0.00000   0.00000   0.00000
    D9       -0.10897   0.00037   0.00000   0.00347   0.00349  -0.10548
   D10        3.09448   0.00031   0.00000   0.00222   0.00223   3.09670
   D11        3.04898   0.00044   0.00000   0.00805   0.00807   3.05705
   D12       -0.03076   0.00038   0.00000   0.00680   0.00681  -0.02396
   D13        1.08397   0.00059   0.00000   0.00869   0.00870   1.09266
   D14       -2.11444   0.00069   0.00000   0.01010   0.01011  -2.10433
   D15        0.10897  -0.00037   0.00000  -0.00348  -0.00350   0.10548
   D16       -3.04898  -0.00044   0.00000  -0.00805  -0.00807  -3.05705
   D17       -3.09448  -0.00031   0.00000  -0.00221  -0.00222  -3.09670
   D18        0.03075  -0.00038   0.00000  -0.00679  -0.00680   0.02396
   D19       -1.08398  -0.00059   0.00000  -0.00868  -0.00869  -1.09266
   D20        2.11444  -0.00068   0.00000  -0.01010  -0.01011   2.10433
   D21        0.48933  -0.00008   0.00000   0.00596   0.00594   0.49527
   D22       -2.73593   0.00051   0.00000   0.02270   0.02270  -2.71323
   D23       -2.63572  -0.00001   0.00000   0.01058   0.01056  -2.62516
   D24        0.42221   0.00058   0.00000   0.02732   0.02731   0.44952
         Item               Value     Threshold  Converged?
 Maximum Force            0.029465     0.000450     NO 
 RMS     Force            0.008555     0.000300     NO 
 Maximum Displacement     0.067879     0.001800     NO 
 RMS     Displacement     0.028923     0.001200     NO 
 Predicted change in Energy=-4.508871D-03
 GradGradGradGradGradGradGradGradGradGradGradGradGradGradGradGradGradGrad

                          Input orientation:                          
 ---------------------------------------------------------------------
 Center     Atomic      Atomic             Coordinates (Angstroms)
 Number     Number       Type             X           Y           Z
 ---------------------------------------------------------------------
      1          6           0        1.437110   -0.664237    0.137311
      2          6           0        0.297129   -1.495952   -0.237900
      3          6           0       -0.967806   -1.151229   -0.116227
      4          6           0       -0.967787    1.151246   -0.116227
      5          6           0        0.297154    1.495948   -0.237900
      6          6           0        1.437121    0.664211    0.137310
      7          1           0        2.353016   -1.175173    0.371246
      8          1           0        0.496680   -2.461160   -0.665491
      9          1           0        0.496723    2.461152   -0.665491
     10          1           0        2.353037    1.175129    0.371245
     11          8           0       -1.391082    0.000013    0.494212
     12          1           0       -1.773907    1.777501   -0.441635
     13          1           0       -1.773938   -1.777470   -0.441635
 ---------------------------------------------------------------------
                    Distance matrix (angstroms):
                    1          2          3          4          5
     1  C    0.000000
     2  C    1.460168   0.000000
     3  C    2.466793   1.316700   0.000000
     4  C    3.023870   2.936405   2.302475   0.000000
     5  C    2.471170   2.991899   2.936405   1.316701   0.000000
     6  C    1.328448   2.471167   3.023868   2.466793   1.460169
     7  H    1.074553   2.168093   3.356495   4.083820   3.425275
     8  H    2.181245   1.074375   2.040179   3.936475   3.985140
     9  H    3.361082   3.985140   3.936474   2.040180   1.074375
    10  H    2.068070   3.425272   4.083818   3.356497   2.168095
    11  O    2.926992   2.371488   1.370094   1.370092   2.371487
    12  H    4.075279   3.878942   3.055020   1.071408   2.100018
    13  H    3.447506   2.100019   1.071409   3.055020   3.878942
                    6          7          8          9         10
     6  C    0.000000
     7  H    2.068072   0.000000
     8  H    3.361081   2.484868   0.000000
     9  H    2.181246   4.212304   4.922312   0.000000
    10  H    1.074553   2.350302   4.212301   2.484870   0.000000
    11  O    2.926991   3.926124   3.311485   3.311484   3.926124
    12  H    3.447506   5.139120   4.813722   2.381859   4.249153
    13  H    4.075277   4.249151   2.381858   4.813723   5.139118
                   11         12         13
    11  O    0.000000
    12  H    2.044952   0.000000
    13  H    2.044953   3.554971   0.000000
 Stoichiometry    C6H6O
 Framework group  C1[X(C6H6O)]
 Deg. of freedom    33
 Full point group                 C1      NOp   1
 Largest Abelian subgroup         C1      NOp   1
 Largest concise Abelian subgroup C1      NOp   1
                         Standard orientation:                         
 ---------------------------------------------------------------------
 Center     Atomic      Atomic             Coordinates (Angstroms)
 Number     Number       Type             X           Y           Z
 ---------------------------------------------------------------------
      1          6           0       -1.432779    0.664173    0.139208
      2          6           0       -0.292704    1.495939   -0.235605
      3          6           0        0.972204    1.151273   -0.113491
      4          6           0        0.972288   -1.151203   -0.113491
      5          6           0       -0.292596   -1.495960   -0.235605
      6          6           0       -1.432731   -0.664275    0.139208
      7          1           0       -2.348789    1.175068    0.372824
      8          1           0       -0.492149    2.461138   -0.663266
      9          1           0       -0.491972   -2.461174   -0.663265
     10          1           0       -2.348705   -1.175234    0.372824
     11          8           0        1.395319    0.000049    0.497096
     12          1           0        1.778549   -1.777421   -0.438618
     13          1           0        1.778421    1.777550   -0.438617
 ---------------------------------------------------------------------
 Rotational constants (GHZ):      4.0430374      3.8673937      2.1003968
 Standard basis: 6-31G(d) (6D, 7F)
 There are   117 symmetry adapted cartesian basis functions of A   symmetry.
 There are   117 symmetry adapted basis functions of A   symmetry.
   117 basis functions,   220 primitive gaussians,   117 cartesian basis functions
    25 alpha electrons       25 beta electrons
       nuclear repulsion energy       277.7446254363 Hartrees.
 NAtoms=   13 NActive=   13 NUniq=   13 SFac= 1.00D+00 NAtFMM=   60 NAOKFM=F Big=F
 Integral buffers will be    131072 words long.
 Raffenetti 1 integral format.
 Two-electron integral symmetry is turned on.
 One-electron integrals computed using PRISM.
 NBasis=   117 RedAO= T EigKep=  1.15D-03  NBF=   117
 NBsUse=   117 1.00D-06 EigRej= -1.00D+00 NBFU=   117
 Initial guess from the checkpoint file:  "/tmp/Gau-5945.chk"
 B after Tr=     0.000000    0.000000    0.000000
         Rot=    0.999999    0.000000    0.001116   -0.000096 Ang=   0.13 deg.
 ExpMin= 1.61D-01 ExpMax= 5.48D+03 ExpMxC= 8.25D+02 IAcc=1 IRadAn=         1 AccDes= 0.00D+00
 Harris functional with IExCor=  205 and IRadAn=       1 diagonalized for initial guess.
 HarFok:  IExCor=  205 AccDes= 0.00D+00 IRadAn=         1 IDoV= 1 UseB2=F ITyADJ=14
 ICtDFT=  3500011 ScaDFX=  1.000000  1.000000  1.000000  1.000000
 FoFCou: FMM=F IPFlag=           0 FMFlag=      100000 FMFlg1=           0
         NFxFlg=           0 DoJE=T BraDBF=F KetDBF=T FulRan=T
         wScrn=  0.000000 ICntrl=     500 IOpCl=  0 I1Cent=   200000004 NGrid=           0
         NMat0=    1 NMatS0=      1 NMatT0=    0 NMatD0=    1 NMtDS0=    0 NMtDT0=    0
 Petite list used in FoFCou.
 Keep R1 ints in memory in canonical form, NReq=24775968.
 Requested convergence on RMS density matrix=1.00D-08 within 128 cycles.
 Requested convergence on MAX density matrix=1.00D-06.
 Requested convergence on             energy=1.00D-06.
 No special actions if energy rises.
 SCF Done:  E(RHF) =  -305.489553566     A.U. after   11 cycles
            NFock= 11  Conv=0.39D-08     -V/T= 2.0009
 Calling FoFJK, ICntrl=      2127 FMM=F ISym2X=0 I1Cent= 0 IOpClX= 0 NMat=1 NMatS=1 NMatT=0.
 ***** Axes restored to original set *****
 -------------------------------------------------------------------
 Center     Atomic                   Forces (Hartrees/Bohr)
 Number     Number              X              Y              Z
 -------------------------------------------------------------------
      1        6           0.001957881   -0.000823259    0.000459730
      2        6           0.001543933   -0.003477113   -0.001594714
      3        6          -0.003552508    0.001510804    0.003037275
      4        6          -0.003551306   -0.001510368    0.003037140
      5        6           0.001544231    0.003476457   -0.001594676
      6        6           0.001958332    0.000823725    0.000459839
      7        1           0.000847327   -0.001396963    0.000727547
      8        1           0.001085518   -0.000865869   -0.001091959
      9        1           0.001085607    0.000865881   -0.001091977
     10        1           0.000846907    0.001397113    0.000727505
     11        8          -0.000047834   -0.000000853   -0.002243341
     12        1          -0.001859227    0.001292505   -0.000416259
     13        1          -0.001858861   -0.001292059   -0.000416110
 -------------------------------------------------------------------
 Cartesian Forces:  Max     0.003552508 RMS     0.001754078

 GradGradGradGradGradGradGradGradGradGradGradGradGradGradGradGradGradGrad
 Berny optimization.
 Using GEDIIS/GDIIS optimizer.
 FormGI is forming the generalized inverse of G from B-inverse, IUseBI=4.
 Internal  Forces:  Max     0.005850430 RMS     0.001683389
 Search for a local minimum.
 Step number   2 out of a maximum of   66
 All quantities printed in internal units (Hartrees-Bohrs-Radians)
 Mixed Optimization -- RFO/linear search
 Update second derivatives using D2CorX and points    1    2
 DE= -3.90D-03 DEPred=-4.51D-03 R= 8.65D-01
 TightC=F SS=  1.41D+00  RLast= 1.53D-01 DXNew= 5.0454D-01 4.6021D-01
 Trust test= 8.65D-01 RLast= 1.53D-01 DXMaxT set to 4.60D-01
 ITU=  1  0
 Use linear search instead of GDIIS.
     Eigenvalues ---    0.01651   0.01816   0.02057   0.02095   0.02172
     Eigenvalues ---    0.02340   0.02558   0.02574   0.02720   0.04189
     Eigenvalues ---    0.15933   0.15962   0.15980   0.15981   0.15998
     Eigenvalues ---    0.16005   0.19025   0.20044   0.21905   0.22085
     Eigenvalues ---    0.34042   0.34136   0.34233   0.34264   0.34284
     Eigenvalues ---    0.34285   0.35555   0.37357   0.46045   0.46542
     Eigenvalues ---    0.52999   0.53183   0.64159
 RFO step:  Lambda=-2.77310799D-04 EMin= 1.65106081D-02
 Quartic linear search produced a step of -0.11626.
 Iteration  1 RMS(Cart)=  0.01026621 RMS(Int)=  0.00007325
 Iteration  2 RMS(Cart)=  0.00008228 RMS(Int)=  0.00001962
 Iteration  3 RMS(Cart)=  0.00000000 RMS(Int)=  0.00001962
 Variable       Old X    -DE/DX   Delta X   Delta X   Delta X     New X
                                 (Linear)    (Quad)   (Total)
    R1        2.75932   0.00390  -0.00020   0.00943   0.00923   2.76855
    R2        2.51040   0.00469   0.00603  -0.00019   0.00585   2.51625
    R3        2.03061   0.00154   0.00445  -0.00189   0.00256   2.03317
    R4        2.48820   0.00585   0.00601   0.00153   0.00754   2.49574
    R5        2.03027   0.00141   0.00445  -0.00222   0.00222   2.03250
    R6        2.58910   0.00090   0.00285  -0.00189   0.00095   2.59005
    R7        2.02467   0.00228   0.00539  -0.00121   0.00418   2.02885
    R8        2.48820   0.00585   0.00601   0.00153   0.00754   2.49574
    R9        2.58910   0.00090   0.00285  -0.00189   0.00095   2.59005
   R10        2.02467   0.00228   0.00539  -0.00121   0.00418   2.02885
   R11        2.75932   0.00390  -0.00020   0.00943   0.00923   2.76855
   R12        2.03027   0.00141   0.00445  -0.00222   0.00223   2.03250
   R13        2.03061   0.00154   0.00445  -0.00189   0.00256   2.03317
    A1        2.17683   0.00028   0.00007  -0.00005  -0.00002   2.17681
    A2        2.03819  -0.00087  -0.00014  -0.00356  -0.00372   2.03446
    A3        2.06631   0.00062  -0.00005   0.00452   0.00445   2.07076
    A4        2.18604  -0.00086   0.00048  -0.00408  -0.00363   2.18241
    A5        2.05894  -0.00041  -0.00019  -0.00266  -0.00284   2.05610
    A6        2.03803   0.00126  -0.00029   0.00673   0.00646   2.04449
    A7        2.16271   0.00002   0.00027   0.00034   0.00054   2.16326
    A8        2.14329   0.00021  -0.00060   0.00198   0.00138   2.14467
    A9        1.97579  -0.00020   0.00033  -0.00168  -0.00136   1.97443
   A10        2.16271   0.00002   0.00027   0.00034   0.00054   2.16326
   A11        2.14329   0.00021  -0.00061   0.00198   0.00137   2.14466
   A12        1.97579  -0.00020   0.00033  -0.00168  -0.00136   1.97443
   A13        2.18604  -0.00086   0.00048  -0.00408  -0.00363   2.18241
   A14        2.03803   0.00126  -0.00028   0.00673   0.00646   2.04449
   A15        2.05894  -0.00041  -0.00019  -0.00266  -0.00284   2.05610
   A16        2.17683   0.00028   0.00007  -0.00005  -0.00002   2.17681
   A17        2.06630   0.00062  -0.00006   0.00452   0.00445   2.07076
   A18        2.03819  -0.00087  -0.00014  -0.00357  -0.00372   2.03446
   A19        1.99553   0.00221  -0.00030   0.01161   0.01128   2.00682
    D1       -0.49527   0.00012   0.00069  -0.01372  -0.01305  -0.50832
    D2        2.62516   0.00017   0.00123  -0.01453  -0.01332   2.61184
    D3        2.71323  -0.00031   0.00264  -0.03007  -0.02741   2.68582
    D4       -0.44952  -0.00025   0.00318  -0.03087  -0.02769  -0.47721
    D5        0.00000   0.00000   0.00000   0.00000   0.00000   0.00000
    D6       -3.07369  -0.00038   0.00198  -0.01630  -0.01435  -3.08804
    D7        3.07369   0.00038  -0.00198   0.01630   0.01435   3.08804
    D8        0.00000   0.00000   0.00000   0.00000   0.00000   0.00000
    D9       -0.10548   0.00091  -0.00041   0.01992   0.01951  -0.08597
   D10        3.09670   0.00029  -0.00026   0.00614   0.00587   3.10257
   D11        3.05705   0.00087  -0.00094   0.02082   0.01988   3.07693
   D12       -0.02396   0.00025  -0.00079   0.00704   0.00624  -0.01772
   D13        1.09266  -0.00040  -0.00101  -0.01159  -0.01261   1.08005
   D14       -2.10433   0.00017  -0.00118   0.00112  -0.00008  -2.10441
   D15        0.10548  -0.00091   0.00041  -0.01992  -0.01951   0.08597
   D16       -3.05705  -0.00087   0.00094  -0.02082  -0.01988  -3.07692
   D17       -3.09670  -0.00029   0.00026  -0.00615  -0.00587  -3.10257
   D18        0.02396  -0.00025   0.00079  -0.00704  -0.00624   0.01772
   D19       -1.09266   0.00040   0.00101   0.01159   0.01261  -1.08005
   D20        2.10433  -0.00017   0.00118  -0.00112   0.00008   2.10441
   D21        0.49527  -0.00012  -0.00069   0.01372   0.01305   0.50832
   D22       -2.71323   0.00031  -0.00264   0.03007   0.02742  -2.68582
   D23       -2.62516  -0.00017  -0.00123   0.01452   0.01332  -2.61184
   D24        0.44952   0.00025  -0.00318   0.03087   0.02769   0.47721
         Item               Value     Threshold  Converged?
 Maximum Force            0.005850     0.000450     NO 
 RMS     Force            0.001683     0.000300     NO 
 Maximum Displacement     0.033513     0.001800     NO 
 RMS     Displacement     0.010271     0.001200     NO 
 Predicted change in Energy=-2.007243D-04
 GradGradGradGradGradGradGradGradGradGradGradGradGradGradGradGradGradGrad

                          Input orientation:                          
 ---------------------------------------------------------------------
 Center     Atomic      Atomic             Coordinates (Angstroms)
 Number     Number       Type             X           Y           Z
 ---------------------------------------------------------------------
      1          6           0        1.440735   -0.665784    0.135363
      2          6           0        0.298030   -1.500262   -0.244445
      3          6           0       -0.969985   -1.155827   -0.111327
      4          6           0       -0.969965    1.155844   -0.111327
      5          6           0        0.298056    1.500256   -0.244445
      6          6           0        1.440746    0.665759    0.135363
      7          1           0        2.351409   -1.181573    0.384793
      8          1           0        0.502070   -2.460809   -0.683226
      9          1           0        0.502113    2.460801   -0.683225
     10          1           0        2.351429    1.181532    0.384792
     11          8           0       -1.389605    0.000012    0.494060
     12          1           0       -1.780776    1.781360   -0.433778
     13          1           0       -1.780807   -1.781329   -0.433779
 ---------------------------------------------------------------------
                    Distance matrix (angstroms):
                    1          2          3          4          5
     1  C    0.000000
     2  C    1.465053   0.000000
     3  C    2.472361   1.320688   0.000000
     4  C    3.031610   2.946257   2.311671   0.000000
     5  C    2.478245   3.000518   2.946256   1.320689   0.000000
     6  C    1.331543   2.478245   3.031610   2.472361   1.465053
     7  H    1.075909   2.171144   3.358341   4.091599   3.435754
     8  H    2.184787   1.075552   2.048656   3.946408   3.990512
     9  H    3.365506   3.990513   3.946408   2.048657   1.075552
    10  H    2.074647   3.435754   4.091598   3.358341   2.171144
    11  O    2.929636   2.375778   1.370598   1.370597   2.375778
    12  H    4.085409   3.889257   3.064054   1.073620   2.106279
    13  H    3.456399   2.106279   1.073620   3.064053   3.889257
                    6          7          8          9         10
     6  C    0.000000
     7  H    2.074647   0.000000
     8  H    3.365506   2.489410   0.000000
     9  H    2.184787   4.222256   4.921610   0.000000
    10  H    1.075909   2.363106   4.222256   2.489410   0.000000
    11  O    2.929636   3.924699   3.319650   3.319650   3.924699
    12  H    3.456399   5.150144   4.823859   2.394879   4.254994
    13  H    4.085409   4.254994   2.394879   4.823858   5.150144
                   11         12         13
    11  O    0.000000
    12  H    2.046240   0.000000
    13  H    2.046240   3.562689   0.000000
 Stoichiometry    C6H6O
 Framework group  C1[X(C6H6O)]
 Deg. of freedom    33
 Full point group                 C1      NOp   1
 Largest Abelian subgroup         C1      NOp   1
 Largest concise Abelian subgroup C1      NOp   1
                         Standard orientation:                         
 ---------------------------------------------------------------------
 Center     Atomic      Atomic             Coordinates (Angstroms)
 Number     Number       Type             X           Y           Z
 ---------------------------------------------------------------------
      1          6           0       -1.435530    0.665761    0.139834
      2          6           0       -0.293192    1.500257   -0.241036
      3          6           0        0.974952    1.155842   -0.109096
      4          6           0        0.974969   -1.155828   -0.109095
      5          6           0       -0.293170   -1.500261   -0.241036
      6          6           0       -1.435520   -0.665782    0.139833
      7          1           0       -2.345980    1.181536    0.390110
      8          1           0       -0.497655    2.460801   -0.679627
      9          1           0       -0.497619   -2.460809   -0.679626
     10          1           0       -2.345963   -1.181570    0.390109
     11          8           0        1.395152    0.000010    0.495901
     12          1           0        1.785490   -1.781332   -0.432300
     13          1           0        1.785464    1.781357   -0.432300
 ---------------------------------------------------------------------
 Rotational constants (GHZ):      4.0188952      3.8545007      2.0915034
 Standard basis: 6-31G(d) (6D, 7F)
 There are   117 symmetry adapted cartesian basis functions of A   symmetry.
 There are   117 symmetry adapted basis functions of A   symmetry.
   117 basis functions,   220 primitive gaussians,   117 cartesian basis functions
    25 alpha electrons       25 beta electrons
       nuclear repulsion energy       277.1447008690 Hartrees.
 NAtoms=   13 NActive=   13 NUniq=   13 SFac= 1.00D+00 NAtFMM=   60 NAOKFM=F Big=F
 Integral buffers will be    131072 words long.
 Raffenetti 1 integral format.
 Two-electron integral symmetry is turned on.
 One-electron integrals computed using PRISM.
 NBasis=   117 RedAO= T EigKep=  1.20D-03  NBF=   117
 NBsUse=   117 1.00D-06 EigRej= -1.00D+00 NBFU=   117
 Initial guess from the checkpoint file:  "/tmp/Gau-5945.chk"
 B after Tr=     0.000000    0.000000    0.000000
         Rot=    1.000000    0.000000    0.000052    0.000014 Ang=   0.01 deg.
 ExpMin= 1.61D-01 ExpMax= 5.48D+03 ExpMxC= 8.25D+02 IAcc=1 IRadAn=         1 AccDes= 0.00D+00
 Harris functional with IExCor=  205 and IRadAn=       1 diagonalized for initial guess.
 HarFok:  IExCor=  205 AccDes= 0.00D+00 IRadAn=         1 IDoV= 1 UseB2=F ITyADJ=14
 ICtDFT=  3500011 ScaDFX=  1.000000  1.000000  1.000000  1.000000
 FoFCou: FMM=F IPFlag=           0 FMFlag=      100000 FMFlg1=           0
         NFxFlg=           0 DoJE=T BraDBF=F KetDBF=T FulRan=T
         wScrn=  0.000000 ICntrl=     500 IOpCl=  0 I1Cent=   200000004 NGrid=           0
         NMat0=    1 NMatS0=      1 NMatT0=    0 NMatD0=    1 NMtDS0=    0 NMtDT0=    0
 Petite list used in FoFCou.
 Keep R1 ints in memory in canonical form, NReq=24775842.
 Requested convergence on RMS density matrix=1.00D-08 within 128 cycles.
 Requested convergence on MAX density matrix=1.00D-06.
 Requested convergence on             energy=1.00D-06.
 No special actions if energy rises.
 SCF Done:  E(RHF) =  -305.489779422     A.U. after   10 cycles
            NFock= 10  Conv=0.73D-08     -V/T= 2.0012
 Calling FoFJK, ICntrl=      2127 FMM=F ISym2X=0 I1Cent= 0 IOpClX= 0 NMat=1 NMatS=1 NMatT=0.
 ***** Axes restored to original set *****
 -------------------------------------------------------------------
 Center     Atomic                   Forces (Hartrees/Bohr)
 Number     Number              X              Y              Z
 -------------------------------------------------------------------
      1        6           0.000215454    0.001719644    0.000372183
      2        6          -0.001214171   -0.000321191   -0.000659163
      3        6           0.000843720    0.000811613    0.000577399
      4        6           0.000844183   -0.000811540    0.000577211
      5        6          -0.001214216    0.000321361   -0.000659055
      6        6           0.000215438   -0.001719634    0.000372194
      7        1           0.000318174   -0.000420942    0.000121746
      8        1           0.000247982   -0.000337868   -0.000100326
      9        1           0.000247963    0.000337750   -0.000100349
     10        1           0.000318124    0.000420913    0.000121735
     11        8           0.000004097   -0.000000210   -0.001050973
     12        1          -0.000413475    0.000434260    0.000213697
     13        1          -0.000413274   -0.000434155    0.000213700
 -------------------------------------------------------------------
 Cartesian Forces:  Max     0.001719644 RMS     0.000652194

 GradGradGradGradGradGradGradGradGradGradGradGradGradGradGradGradGradGrad
 Berny optimization.
 Using GEDIIS/GDIIS optimizer.
 FormGI is forming the generalized inverse of G from B-inverse, IUseBI=4.
 Internal  Forces:  Max     0.000854062 RMS     0.000313233
 Search for a local minimum.
 Step number   3 out of a maximum of   66
 All quantities printed in internal units (Hartrees-Bohrs-Radians)
 Mixed Optimization -- En-DIIS/RFO-DIIS
 Update second derivatives using D2CorX and points    1    2    3
 DE= -2.26D-04 DEPred=-2.01D-04 R= 1.13D+00
 TightC=F SS=  1.41D+00  RLast= 8.29D-02 DXNew= 7.7398D-01 2.4859D-01
 Trust test= 1.13D+00 RLast= 8.29D-02 DXMaxT set to 4.60D-01
 ITU=  1  1  0
 Use linear search instead of GDIIS.
     Eigenvalues ---    0.01479   0.01818   0.02061   0.02133   0.02173
     Eigenvalues ---    0.02317   0.02508   0.02557   0.02715   0.04163
     Eigenvalues ---    0.15336   0.15976   0.15987   0.15989   0.15998
     Eigenvalues ---    0.15999   0.18909   0.20073   0.21517   0.21888
     Eigenvalues ---    0.33544   0.34136   0.34214   0.34264   0.34285
     Eigenvalues ---    0.34292   0.35009   0.35556   0.46071   0.46581
     Eigenvalues ---    0.53140   0.53181   0.71536
 RFO step:  Lambda=-4.10892709D-05 EMin= 1.47862852D-02
 Quartic linear search produced a step of  0.13080.
 Iteration  1 RMS(Cart)=  0.00512689 RMS(Int)=  0.00002639
 Iteration  2 RMS(Cart)=  0.00002824 RMS(Int)=  0.00000826
 Iteration  3 RMS(Cart)=  0.00000000 RMS(Int)=  0.00000826
 Variable       Old X    -DE/DX   Delta X   Delta X   Delta X     New X
                                 (Linear)    (Quad)   (Total)
    R1        2.76855   0.00085   0.00121   0.00239   0.00360   2.77215
    R2        2.51625  -0.00075   0.00077  -0.00242  -0.00165   2.51460
    R3        2.03317   0.00050   0.00034   0.00117   0.00150   2.03468
    R4        2.49574  -0.00036   0.00099  -0.00145  -0.00047   2.49527
    R5        2.03250   0.00039   0.00029   0.00081   0.00110   2.03360
    R6        2.59005  -0.00045   0.00012  -0.00129  -0.00116   2.58889
    R7        2.02885   0.00050   0.00055   0.00105   0.00160   2.03044
    R8        2.49574  -0.00036   0.00099  -0.00145  -0.00047   2.49527
    R9        2.59005  -0.00045   0.00012  -0.00128  -0.00116   2.58889
   R10        2.02885   0.00050   0.00055   0.00105   0.00160   2.03044
   R11        2.76855   0.00085   0.00121   0.00239   0.00360   2.77215
   R12        2.03250   0.00039   0.00029   0.00081   0.00110   2.03360
   R13        2.03317   0.00050   0.00034   0.00117   0.00150   2.03468
    A1        2.17681   0.00010   0.00000  -0.00002  -0.00003   2.17678
    A2        2.03446  -0.00026  -0.00049  -0.00136  -0.00185   2.03261
    A3        2.07076   0.00016   0.00058   0.00146   0.00204   2.07280
    A4        2.18241  -0.00034  -0.00047  -0.00172  -0.00222   2.18019
    A5        2.05610  -0.00001  -0.00037  -0.00024  -0.00063   2.05548
    A6        2.04449   0.00035   0.00084   0.00215   0.00299   2.04747
    A7        2.16326   0.00011   0.00007   0.00081   0.00086   2.16412
    A8        2.14467  -0.00001   0.00018  -0.00020  -0.00002   2.14465
    A9        1.97443  -0.00010  -0.00018  -0.00089  -0.00107   1.97336
   A10        2.16326   0.00011   0.00007   0.00081   0.00086   2.16412
   A11        2.14466  -0.00001   0.00018  -0.00020  -0.00002   2.14465
   A12        1.97443  -0.00010  -0.00018  -0.00089  -0.00107   1.97336
   A13        2.18241  -0.00034  -0.00047  -0.00172  -0.00222   2.18019
   A14        2.04449   0.00035   0.00084   0.00215   0.00299   2.04747
   A15        2.05610  -0.00001  -0.00037  -0.00024  -0.00063   2.05548
   A16        2.17681   0.00010   0.00000  -0.00002  -0.00003   2.17678
   A17        2.07076   0.00016   0.00058   0.00146   0.00204   2.07280
   A18        2.03446  -0.00026  -0.00049  -0.00136  -0.00185   2.03261
   A19        2.00682   0.00044   0.00148   0.00304   0.00451   2.01133
    D1       -0.50832  -0.00004  -0.00171  -0.00534  -0.00705  -0.51537
    D2        2.61184   0.00016  -0.00174   0.00531   0.00356   2.61540
    D3        2.68582  -0.00011  -0.00359  -0.00723  -0.01081   2.67501
    D4       -0.47721   0.00009  -0.00362   0.00342  -0.00020  -0.47741
    D5        0.00000   0.00000   0.00000   0.00000   0.00000   0.00000
    D6       -3.08804  -0.00005  -0.00188  -0.00185  -0.00373  -3.09177
    D7        3.08804   0.00005   0.00188   0.00185   0.00373   3.09177
    D8        0.00000   0.00000   0.00000   0.00000   0.00000   0.00000
    D9       -0.08597   0.00022   0.00255   0.00714   0.00969  -0.07628
   D10        3.10257   0.00034   0.00077   0.01493   0.01570   3.11827
   D11        3.07693   0.00003   0.00260  -0.00342  -0.00083   3.07610
   D12       -0.01772   0.00014   0.00082   0.00437   0.00518  -0.01254
   D13        1.08005  -0.00009  -0.00165  -0.00472  -0.00638   1.07367
   D14       -2.10441  -0.00020  -0.00001  -0.01182  -0.01184  -2.11625
   D15        0.08597  -0.00022  -0.00255  -0.00714  -0.00969   0.07628
   D16       -3.07692  -0.00003  -0.00260   0.00342   0.00083  -3.07610
   D17       -3.10257  -0.00034  -0.00077  -0.01493  -0.01570  -3.11827
   D18        0.01772  -0.00014  -0.00082  -0.00437  -0.00518   0.01254
   D19       -1.08005   0.00009   0.00165   0.00472   0.00638  -1.07367
   D20        2.10441   0.00020   0.00001   0.01182   0.01184   2.11625
   D21        0.50832   0.00004   0.00171   0.00534   0.00705   0.51537
   D22       -2.68582   0.00011   0.00359   0.00723   0.01081  -2.67501
   D23       -2.61184  -0.00016   0.00174  -0.00531  -0.00356  -2.61540
   D24        0.47721  -0.00009   0.00362  -0.00342   0.00021   0.47741
         Item               Value     Threshold  Converged?
 Maximum Force            0.000854     0.000450     NO 
 RMS     Force            0.000313     0.000300     NO 
 Maximum Displacement     0.015657     0.001800     NO 
 RMS     Displacement     0.005129     0.001200     NO 
 Predicted change in Energy=-2.350660D-05
 GradGradGradGradGradGradGradGradGradGradGradGradGradGradGradGradGradGrad

                          Input orientation:                          
 ---------------------------------------------------------------------
 Center     Atomic      Atomic             Coordinates (Angstroms)
 Number     Number       Type             X           Y           Z
 ---------------------------------------------------------------------
      1          6           0        1.440846   -0.665347    0.134135
      2          6           0        0.297950   -1.500873   -0.250121
      3          6           0       -0.969553   -1.156965   -0.113278
      4          6           0       -0.969533    1.156982   -0.113278
      5          6           0        0.297976    1.500867   -0.250121
      6          6           0        1.440857    0.665322    0.134135
      7          1           0        2.349360   -1.183446    0.390002
      8          1           0        0.504236   -2.463227   -0.685304
      9          1           0        0.504279    2.463218   -0.685304
     10          1           0        2.349381    1.183405    0.390002
     11          8           0       -1.388589    0.000012    0.488937
     12          1           0       -1.781865    1.787152   -0.425493
     13          1           0       -1.781896   -1.787120   -0.425493
 ---------------------------------------------------------------------
                    Distance matrix (angstroms):
                    1          2          3          4          5
     1  C    0.000000
     2  C    1.466958   0.000000
     3  C    2.472433   1.320440   0.000000
     4  C    3.031834   2.947784   2.313947   0.000000
     5  C    2.479171   3.001740   2.947784   1.320440   0.000000
     6  C    1.330668   2.479171   3.031834   2.472433   1.466958
     7  H    1.076705   2.172281   3.356960   4.092181   3.438528
     8  H    2.186570   1.076134   2.050753   3.950331   3.993240
     9  H    3.366980   3.993240   3.950331   2.050753   1.076134
    10  H    2.075762   3.438528   4.092181   3.356960   2.172280
    11  O    2.928188   2.375558   1.369981   1.369981   2.375558
    12  H    4.088251   3.894546   3.070041   1.074465   2.106763
    13  H    3.457980   2.106763   1.074465   3.070040   3.894545
                    6          7          8          9         10
     6  C    0.000000
     7  H    2.075762   0.000000
     8  H    3.366980   2.489700   0.000000
     9  H    2.186570   4.225963   4.926445   0.000000
    10  H    1.076705   2.366851   4.225963   2.489700   0.000000
    11  O    2.928188   3.922069   3.321020   3.321020   3.922069
    12  H    3.457980   5.153300   4.833164   2.398129   4.254025
    13  H    4.088251   4.254026   2.398129   4.833164   5.153300
                   11         12         13
    11  O    0.000000
    12  H    2.045658   0.000000
    13  H    2.045658   3.574272   0.000000
 Stoichiometry    C6H6O
 Framework group  C1[X(C6H6O)]
 Deg. of freedom    33
 Full point group                 C1      NOp   1
 Largest Abelian subgroup         C1      NOp   1
 Largest concise Abelian subgroup C1      NOp   1
                         Standard orientation:                         
 ---------------------------------------------------------------------
 Center     Atomic      Atomic             Coordinates (Angstroms)
 Number     Number       Type             X           Y           Z
 ---------------------------------------------------------------------
      1          6           0       -1.435466    0.665339    0.140400
      2          6           0       -0.292746    1.500871   -0.244365
      3          6           0        0.974820    1.156970   -0.108087
      4          6           0        0.974812   -1.156976   -0.108087
      5          6           0       -0.292756   -1.500869   -0.244365
      6          6           0       -1.435470   -0.665330    0.140400
      7          1           0       -2.343870    1.183433    0.396672
      8          1           0       -0.499232    2.463224   -0.679456
      9          1           0       -0.499248   -2.463221   -0.679456
     10          1           0       -2.343877   -1.183418    0.396672
     11          8           0        1.394130   -0.000004    0.493941
     12          1           0        1.787008   -1.787142   -0.420665
     13          1           0        1.787020    1.787130   -0.420665
 ---------------------------------------------------------------------
 Rotational constants (GHZ):      4.0136083      3.8565701      2.0906420
 Standard basis: 6-31G(d) (6D, 7F)
 There are   117 symmetry adapted cartesian basis functions of A   symmetry.
 There are   117 symmetry adapted basis functions of A   symmetry.
   117 basis functions,   220 primitive gaussians,   117 cartesian basis functions
    25 alpha electrons       25 beta electrons
       nuclear repulsion energy       277.0934997839 Hartrees.
 NAtoms=   13 NActive=   13 NUniq=   13 SFac= 1.00D+00 NAtFMM=   60 NAOKFM=F Big=F
 Integral buffers will be    131072 words long.
 Raffenetti 1 integral format.
 Two-electron integral symmetry is turned on.
 One-electron integrals computed using PRISM.
 NBasis=   117 RedAO= T EigKep=  1.20D-03  NBF=   117
 NBsUse=   117 1.00D-06 EigRej= -1.00D+00 NBFU=   117
 Initial guess from the checkpoint file:  "/tmp/Gau-5945.chk"
 B after Tr=     0.000000    0.000000    0.000000
         Rot=    1.000000    0.000000    0.000033    0.000005 Ang=   0.00 deg.
 Keep R1 ints in memory in canonical form, NReq=24775842.
 Requested convergence on RMS density matrix=1.00D-08 within 128 cycles.
 Requested convergence on MAX density matrix=1.00D-06.
 Requested convergence on             energy=1.00D-06.
 No special actions if energy rises.
 SCF Done:  E(RHF) =  -305.489803663     A.U. after   10 cycles
            NFock= 10  Conv=0.37D-08     -V/T= 2.0012
 Calling FoFJK, ICntrl=      2127 FMM=F ISym2X=0 I1Cent= 0 IOpClX= 0 NMat=1 NMatS=1 NMatT=0.
 ***** Axes restored to original set *****
 -------------------------------------------------------------------
 Center     Atomic                   Forces (Hartrees/Bohr)
 Number     Number              X              Y              Z
 -------------------------------------------------------------------
      1        6           0.000005693    0.000264887   -0.000064983
      2        6          -0.000121101   -0.000081689    0.000032879
      3        6           0.000349525   -0.000117565    0.000380407
      4        6           0.000349533    0.000117616    0.000380400
      5        6          -0.000121170    0.000081756    0.000032833
      6        6           0.000005625   -0.000264930   -0.000064976
      7        1          -0.000089918    0.000010316   -0.000029962
      8        1          -0.000066513    0.000126886   -0.000007244
      9        1          -0.000066516   -0.000126900   -0.000007231
     10        1          -0.000089868   -0.000010334   -0.000029944
     11        8          -0.000315959    0.000000013   -0.000697019
     12        1           0.000080337   -0.000117792    0.000037426
     13        1           0.000080332    0.000117736    0.000037415
 -------------------------------------------------------------------
 Cartesian Forces:  Max     0.000697019 RMS     0.000192392

 GradGradGradGradGradGradGradGradGradGradGradGradGradGradGradGradGradGrad
 Berny optimization.
 Using GEDIIS/GDIIS optimizer.
 FormGI is forming the generalized inverse of G from B-inverse, IUseBI=4.
 Internal  Forces:  Max     0.000275747 RMS     0.000107674
 Search for a local minimum.
 Step number   4 out of a maximum of   66
 All quantities printed in internal units (Hartrees-Bohrs-Radians)
 Mixed Optimization -- En-DIIS/RFO-DIIS
 Swapping is turned off.
 Update second derivatives using D2CorX and points    1    2    3    4
 DE= -2.42D-05 DEPred=-2.35D-05 R= 1.03D+00
 TightC=F SS=  1.41D+00  RLast= 3.99D-02 DXNew= 7.7398D-01 1.1982D-01
 Trust test= 1.03D+00 RLast= 3.99D-02 DXMaxT set to 4.60D-01
 ITU=  1  1  1  0
     Eigenvalues ---    0.01383   0.01819   0.02063   0.02087   0.02173
     Eigenvalues ---    0.02270   0.02437   0.02558   0.02712   0.04495
     Eigenvalues ---    0.15245   0.15979   0.15986   0.15989   0.15999
     Eigenvalues ---    0.16120   0.19010   0.20092   0.21140   0.21880
     Eigenvalues ---    0.33830   0.34136   0.34213   0.34264   0.34285
     Eigenvalues ---    0.34363   0.35551   0.36808   0.46124   0.46591
     Eigenvalues ---    0.52985   0.53174   0.67971
 En-DIIS/RFO-DIIS IScMMF=        0 using points:     4    3
 RFO step:  Lambda=-1.81278681D-06.
 DidBck=F Rises=F RFO-DIIS coefs:    1.03027   -0.03027
 Iteration  1 RMS(Cart)=  0.00140430 RMS(Int)=  0.00000510
 Iteration  2 RMS(Cart)=  0.00000517 RMS(Int)=  0.00000266
 Iteration  3 RMS(Cart)=  0.00000000 RMS(Int)=  0.00000266
 Variable       Old X    -DE/DX   Delta X   Delta X   Delta X     New X
                                 (Linear)    (Quad)   (Total)
    R1        2.77215  -0.00007   0.00011   0.00033   0.00044   2.77259
    R2        2.51460  -0.00024  -0.00005  -0.00075  -0.00080   2.51380
    R3        2.03468  -0.00009   0.00005  -0.00007  -0.00002   2.03465
    R4        2.49527  -0.00028  -0.00001  -0.00044  -0.00046   2.49481
    R5        2.03360  -0.00012   0.00003  -0.00023  -0.00020   2.03340
    R6        2.58889  -0.00018  -0.00004  -0.00040  -0.00044   2.58845
    R7        2.03044  -0.00014   0.00005  -0.00020  -0.00015   2.03030
    R8        2.49527  -0.00028  -0.00001  -0.00044  -0.00046   2.49481
    R9        2.58889  -0.00018  -0.00004  -0.00040  -0.00044   2.58845
   R10        2.03044  -0.00014   0.00005  -0.00020  -0.00015   2.03030
   R11        2.77215  -0.00007   0.00011   0.00033   0.00044   2.77259
   R12        2.03360  -0.00012   0.00003  -0.00023  -0.00020   2.03340
   R13        2.03468  -0.00009   0.00005  -0.00007  -0.00002   2.03465
    A1        2.17678   0.00004   0.00000   0.00044   0.00044   2.17722
    A2        2.03261  -0.00006  -0.00006  -0.00077  -0.00083   2.03178
    A3        2.07280   0.00002   0.00006   0.00037   0.00043   2.07323
    A4        2.18019  -0.00004  -0.00007   0.00025   0.00018   2.18037
    A5        2.05548   0.00006  -0.00002  -0.00016  -0.00018   2.05530
    A6        2.04747  -0.00003   0.00009  -0.00010  -0.00001   2.04746
    A7        2.16412   0.00010   0.00003   0.00183   0.00185   2.16596
    A8        2.14465   0.00000   0.00000  -0.00048  -0.00048   2.14417
    A9        1.97336  -0.00009  -0.00003  -0.00122  -0.00125   1.97211
   A10        2.16412   0.00010   0.00003   0.00183   0.00185   2.16596
   A11        2.14465   0.00000   0.00000  -0.00048  -0.00048   2.14417
   A12        1.97336  -0.00009  -0.00003  -0.00122  -0.00125   1.97211
   A13        2.18019  -0.00004  -0.00007   0.00025   0.00018   2.18037
   A14        2.04747  -0.00003   0.00009  -0.00010  -0.00001   2.04746
   A15        2.05548   0.00006  -0.00002  -0.00016  -0.00018   2.05530
   A16        2.17678   0.00004   0.00000   0.00044   0.00044   2.17722
   A17        2.07280   0.00002   0.00006   0.00037   0.00043   2.07323
   A18        2.03261  -0.00006  -0.00006  -0.00077  -0.00082   2.03178
   A19        2.01133   0.00012   0.00014   0.00294   0.00306   2.01439
    D1       -0.51537   0.00008  -0.00021   0.00090   0.00069  -0.51468
    D2        2.61540   0.00001   0.00011  -0.00030  -0.00020   2.61520
    D3        2.67501   0.00005  -0.00033  -0.00014  -0.00046   2.67454
    D4       -0.47741  -0.00002  -0.00001  -0.00134  -0.00135  -0.47876
    D5        0.00000   0.00000   0.00000   0.00000   0.00000   0.00000
    D6       -3.09177  -0.00003  -0.00011  -0.00103  -0.00115  -3.09292
    D7        3.09177   0.00003   0.00011   0.00103   0.00115   3.09292
    D8        0.00000   0.00000   0.00000   0.00000   0.00000   0.00000
    D9       -0.07628   0.00005   0.00029   0.00258   0.00287  -0.07341
   D10        3.11827  -0.00010   0.00048  -0.00065  -0.00018   3.11809
   D11        3.07610   0.00012  -0.00003   0.00378   0.00376   3.07986
   D12       -0.01254  -0.00003   0.00016   0.00055   0.00071  -0.01183
   D13        1.07367  -0.00024  -0.00019  -0.00711  -0.00731   1.06636
   D14       -2.11625  -0.00010  -0.00036  -0.00416  -0.00452  -2.12077
   D15        0.07628  -0.00005  -0.00029  -0.00258  -0.00287   0.07341
   D16       -3.07610  -0.00012   0.00003  -0.00378  -0.00376  -3.07986
   D17       -3.11827   0.00010  -0.00048   0.00065   0.00018  -3.11809
   D18        0.01254   0.00003  -0.00016  -0.00055  -0.00071   0.01183
   D19       -1.07367   0.00024   0.00019   0.00711   0.00731  -1.06636
   D20        2.11625   0.00010   0.00036   0.00416   0.00452   2.12077
   D21        0.51537  -0.00008   0.00021  -0.00090  -0.00069   0.51468
   D22       -2.67501  -0.00005   0.00033   0.00014   0.00046  -2.67454
   D23       -2.61540  -0.00001  -0.00011   0.00031   0.00020  -2.61520
   D24        0.47741   0.00002   0.00001   0.00134   0.00135   0.47876
         Item               Value     Threshold  Converged?
 Maximum Force            0.000276     0.000450     YES
 RMS     Force            0.000108     0.000300     YES
 Maximum Displacement     0.006482     0.001800     NO 
 RMS     Displacement     0.001403     0.001200     NO 
 Predicted change in Energy=-3.751780D-06
 GradGradGradGradGradGradGradGradGradGradGradGradGradGradGradGradGradGrad

                          Input orientation:                          
 ---------------------------------------------------------------------
 Center     Atomic      Atomic             Coordinates (Angstroms)
 Number     Number       Type             X           Y           Z
 ---------------------------------------------------------------------
      1          6           0        1.441013   -0.665136    0.133634
      2          6           0        0.297975   -1.501324   -0.249654
      3          6           0       -0.969387   -1.157890   -0.112649
      4          6           0       -0.969366    1.157907   -0.112649
      5          6           0        0.298001    1.501319   -0.249655
      6          6           0        1.441024    0.665111    0.133634
      7          1           0        2.349212   -1.183638    0.389753
      8          1           0        0.504479   -2.463449   -0.684980
      9          1           0        0.504523    2.463440   -0.684980
     10          1           0        2.349233    1.183597    0.389753
     11          8           0       -1.390914    0.000012    0.485507
     12          1           0       -1.781156    1.788849   -0.424447
     13          1           0       -1.781187   -1.788818   -0.424447
 ---------------------------------------------------------------------
                    Distance matrix (angstroms):
                    1          2          3          4          5
     1  C    0.000000
     2  C    1.467193   0.000000
     3  C    2.472547   1.320198   0.000000
     4  C    3.032172   2.948972   2.315797   0.000000
     5  C    2.479297   3.002643   2.948972   1.320198   0.000000
     6  C    1.330247   2.479297   3.032172   2.472547   1.467193
     7  H    1.076693   2.171944   3.356511   4.092457   3.438794
     8  H    2.186584   1.076028   2.050446   3.951455   3.993936
     9  H    3.366768   3.993936   3.951455   2.050446   1.076028
    10  H    2.075639   3.438794   4.092457   3.356511   2.171944
    11  O    2.930195   2.376303   1.369749   1.369749   2.376303
    12  H    4.088504   3.895969   3.072370   1.074387   2.106210
    13  H    3.457844   2.106210   1.074387   3.072370   3.895969
                    6          7          8          9         10
     6  C    0.000000
     7  H    2.075639   0.000000
     8  H    3.366768   2.489178   0.000000
     9  H    2.186584   4.226004   4.926888   0.000000
    10  H    1.076693   2.367235   4.226004   2.489178   0.000000
    11  O    2.930195   3.924122   3.321324   3.321324   3.924122
    12  H    3.457844   5.153498   4.834671   2.397347   4.253159
    13  H    4.088504   4.253159   2.397348   4.834671   5.153498
                   11         12         13
    11  O    0.000000
    12  H    2.044564   0.000000
    13  H    2.044564   3.577667   0.000000
 Stoichiometry    C6H6O
 Framework group  C1[X(C6H6O)]
 Deg. of freedom    33
 Full point group                 C1      NOp   1
 Largest Abelian subgroup         C1      NOp   1
 Largest concise Abelian subgroup C1      NOp   1
                         Standard orientation:                         
 ---------------------------------------------------------------------
 Center     Atomic      Atomic             Coordinates (Angstroms)
 Number     Number       Type             X           Y           Z
 ---------------------------------------------------------------------
      1          6           0       -1.435908    0.665125    0.140061
      2          6           0       -0.292994    1.501322   -0.243578
      3          6           0        0.974412    1.157897   -0.106962
      4          6           0        0.974410   -1.157899   -0.106962
      5          6           0       -0.292997   -1.501321   -0.243578
      6          6           0       -1.435909   -0.665122    0.140061
      7          1           0       -2.344033    1.183620    0.396460
      8          1           0       -0.499640    2.463445   -0.678840
      9          1           0       -0.499645   -2.463444   -0.678840
     10          1           0       -2.344035   -1.183616    0.396460
     11          8           0        1.396131   -0.000001    0.491065
     12          1           0        1.786108   -1.788835   -0.419009
     13          1           0        1.786111    1.788832   -0.419009
 ---------------------------------------------------------------------
 Rotational constants (GHZ):      4.0127907      3.8556132      2.0889828
 Standard basis: 6-31G(d) (6D, 7F)
 There are   117 symmetry adapted cartesian basis functions of A   symmetry.
 There are   117 symmetry adapted basis functions of A   symmetry.
   117 basis functions,   220 primitive gaussians,   117 cartesian basis functions
    25 alpha electrons       25 beta electrons
       nuclear repulsion energy       277.0713026224 Hartrees.
 NAtoms=   13 NActive=   13 NUniq=   13 SFac= 1.00D+00 NAtFMM=   60 NAOKFM=F Big=F
 Integral buffers will be    131072 words long.
 Raffenetti 1 integral format.
 Two-electron integral symmetry is turned on.
 One-electron integrals computed using PRISM.
 NBasis=   117 RedAO= T EigKep=  1.21D-03  NBF=   117
 NBsUse=   117 1.00D-06 EigRej= -1.00D+00 NBFU=   117
 Initial guess from the checkpoint file:  "/tmp/Gau-5945.chk"
 B after Tr=     0.000000    0.000000    0.000000
         Rot=    1.000000    0.000000   -0.000127   -0.000001 Ang=  -0.01 deg.
 Keep R1 ints in memory in canonical form, NReq=24775842.
 Requested convergence on RMS density matrix=1.00D-08 within 128 cycles.
 Requested convergence on MAX density matrix=1.00D-06.
 Requested convergence on             energy=1.00D-06.
 No special actions if energy rises.
 SCF Done:  E(RHF) =  -305.489808614     A.U. after    9 cycles
            NFock=  9  Conv=0.59D-08     -V/T= 2.0012
 Calling FoFJK, ICntrl=      2127 FMM=F ISym2X=0 I1Cent= 0 IOpClX= 0 NMat=1 NMatS=1 NMatT=0.
 ***** Axes restored to original set *****
 -------------------------------------------------------------------
 Center     Atomic                   Forces (Hartrees/Bohr)
 Number     Number              X              Y              Z
 -------------------------------------------------------------------
      1        6           0.000017356   -0.000166236   -0.000046369
      2        6           0.000083829    0.000139072    0.000023186
      3        6           0.000089102    0.000010533    0.000008534
      4        6           0.000089062   -0.000010549    0.000008557
      5        6           0.000083811   -0.000139064    0.000023169
      6        6           0.000017337    0.000166229   -0.000046371
      7        1          -0.000036315    0.000064465   -0.000022097
      8        1          -0.000075346    0.000020133    0.000064958
      9        1          -0.000075336   -0.000020128    0.000064963
     10        1          -0.000036299   -0.000064467   -0.000022093
     11        8          -0.000258607    0.000000027   -0.000196858
     12        1           0.000050711   -0.000028764    0.000070209
     13        1           0.000050694    0.000028749    0.000070211
 -------------------------------------------------------------------
 Cartesian Forces:  Max     0.000258607 RMS     0.000085489

 GradGradGradGradGradGradGradGradGradGradGradGradGradGradGradGradGradGrad
 Berny optimization.
 Using GEDIIS/GDIIS optimizer.
 FormGI is forming the generalized inverse of G from B-inverse, IUseBI=4.
 Internal  Forces:  Max     0.000114608 RMS     0.000059268
 Search for a local minimum.
[...]
    D6       -3.09365  -0.00002  -0.00036  -0.00018  -0.00054  -3.09419
    D7        3.09365   0.00002   0.00036   0.00018   0.00054   3.09419
    D8        0.00000   0.00000   0.00000   0.00000   0.00000   0.00000
    D9       -0.07144  -0.00002  -0.00050  -0.00007  -0.00057  -0.07202
   D10        3.12059   0.00000  -0.00013  -0.00013  -0.00026   3.12033
   D11        3.08032  -0.00002  -0.00048   0.00000  -0.00048   3.07984
   D12       -0.01084   0.00000  -0.00011  -0.00006  -0.00016  -0.01100
   D13        1.05401   0.00001   0.00033  -0.00008   0.00025   1.05426
   D14       -2.13361  -0.00001  -0.00001  -0.00003  -0.00004  -2.13366
   D15        0.07144   0.00002   0.00050   0.00007   0.00057   0.07202
   D16       -3.08032   0.00002   0.00048   0.00000   0.00048  -3.07984
   D17       -3.12059   0.00000   0.00013   0.00013   0.00026  -3.12033
   D18        0.01084   0.00000   0.00011   0.00006   0.00016   0.01100
   D19       -1.05401  -0.00001  -0.00033   0.00008  -0.00025  -1.05426
   D20        2.13361   0.00001   0.00001   0.00003   0.00004   2.13366
   D21        0.51053  -0.00001  -0.00039  -0.00012  -0.00052   0.51001
   D22       -2.67797   0.00001  -0.00005   0.00006   0.00001  -2.67796
   D23       -2.62084  -0.00001  -0.00037  -0.00005  -0.00042  -2.62127
   D24        0.47384   0.00001  -0.00003   0.00013   0.00010   0.47394
         Item               Value     Threshold  Converged?
 Maximum Force            0.000041     0.000450     YES
 RMS     Force            0.000014     0.000300     YES
 Maximum Displacement     0.000764     0.001800     YES
 RMS     Displacement     0.000201     0.001200     YES
 Predicted change in Energy=-6.917967D-08
 Optimization completed.
    -- Stationary point found.
                           ----------------------------
                           !   Optimized Parameters   !
                           ! (Angstroms and Degrees)  !
 --------------------------                            --------------------------
 ! Name  Definition              Value          Derivative Info.                !
 --------------------------------------------------------------------------------
 ! R1    R(1,2)                  1.4672         -DE/DX =    0.0                 !
 ! R2    R(1,6)                  1.33           -DE/DX =    0.0                 !
 ! R3    R(1,7)                  1.0766         -DE/DX =    0.0                 !
 ! R4    R(2,3)                  1.3201         -DE/DX =    0.0                 !
 ! R5    R(2,8)                  1.0759         -DE/DX =    0.0                 !
 ! R6    R(3,11)                 1.3695         -DE/DX =    0.0                 !
 ! R7    R(3,13)                 1.0743         -DE/DX =    0.0                 !
 ! R8    R(4,5)                  1.3201         -DE/DX =    0.0                 !
 ! R9    R(4,11)                 1.3695         -DE/DX =    0.0                 !
 ! R10   R(4,12)                 1.0743         -DE/DX =    0.0                 !
 ! R11   R(5,6)                  1.4672         -DE/DX =    0.0                 !
 ! R12   R(5,9)                  1.0759         -DE/DX =    0.0                 !
 ! R13   R(6,10)                 1.0766         -DE/DX =    0.0                 !
 ! A1    A(2,1,6)              124.7557         -DE/DX =    0.0                 !
 ! A2    A(2,1,7)              116.4082         -DE/DX =    0.0                 !
 ! A3    A(6,1,7)              118.7831         -DE/DX =    0.0                 !
 ! A4    A(1,2,3)              125.0538         -DE/DX =    0.0                 !
 ! A5    A(1,2,8)              117.7447         -DE/DX =    0.0                 !
 ! A6    A(3,2,8)              117.199          -DE/DX =    0.0                 !
 ! A7    A(2,3,11)             124.2932         -DE/DX =    0.0                 !
 ! A8    A(2,3,13)             122.7704         -DE/DX =    0.0                 !
 ! A9    A(11,3,13)            112.8815         -DE/DX =    0.0                 !
 ! A10   A(5,4,11)             124.2932         -DE/DX =    0.0                 !
 ! A11   A(5,4,12)             122.7704         -DE/DX =    0.0                 !
 ! A12   A(11,4,12)            112.8815         -DE/DX =    0.0                 !
 ! A13   A(4,5,6)              125.0538         -DE/DX =    0.0                 !
 ! A14   A(4,5,9)              117.199          -DE/DX =    0.0                 !
 ! A15   A(6,5,9)              117.7447         -DE/DX =    0.0                 !
 ! A16   A(1,6,5)              124.7557         -DE/DX =    0.0                 !
 ! A17   A(1,6,10)             118.7831         -DE/DX =    0.0                 !
 ! A18   A(5,6,10)             116.4082         -DE/DX =    0.0                 !
 ! A19   A(3,11,4)             115.6234         -DE/DX =    0.0                 !
 ! D1    D(6,1,2,3)            -29.2512         -DE/DX =    0.0                 !
 ! D2    D(6,1,2,8)            150.1633         -DE/DX =    0.0                 !
 ! D3    D(7,1,2,3)            153.4366         -DE/DX =    0.0                 !
 ! D4    D(7,1,2,8)            -27.1489         -DE/DX =    0.0                 !
 ! D5    D(2,1,6,5)              0.0            -DE/DX =    0.0                 !
 ! D6    D(2,1,6,10)          -177.2534         -DE/DX =    0.0                 !
 ! D7    D(7,1,6,5)            177.2533         -DE/DX =    0.0                 !
 ! D8    D(7,1,6,10)             0.0            -DE/DX =    0.0                 !
 ! D9    D(1,2,3,11)            -4.0934         -DE/DX =    0.0                 !
 ! D10   D(1,2,3,13)           178.7966         -DE/DX =    0.0                 !
 ! D11   D(8,2,3,11)           176.4892         -DE/DX =    0.0                 !
 ! D12   D(8,2,3,13)            -0.6208         -DE/DX =    0.0                 !
 ! D13   D(2,3,11,4)            60.3903         -DE/DX =    0.0                 !
 ! D14   D(13,3,11,4)         -122.2471         -DE/DX =    0.0                 !
 ! D15   D(11,4,5,6)             4.0935         -DE/DX =    0.0                 !
 ! D16   D(11,4,5,9)          -176.4892         -DE/DX =    0.0                 !
 ! D17   D(12,4,5,6)          -178.7966         -DE/DX =    0.0                 !
 ! D18   D(12,4,5,9)             0.6208         -DE/DX =    0.0                 !
 ! D19   D(5,4,11,3)           -60.3903         -DE/DX =    0.0                 !
 ! D20   D(12,4,11,3)          122.2471         -DE/DX =    0.0                 !
 ! D21   D(4,5,6,1)             29.2512         -DE/DX =    0.0                 !
 ! D22   D(4,5,6,10)          -153.4366         -DE/DX =    0.0                 !
 ! D23   D(9,5,6,1)           -150.1633         -DE/DX =    0.0                 !
 ! D24   D(9,5,6,10)            27.149          -DE/DX =    0.0                 !
 --------------------------------------------------------------------------------
 GradGradGradGradGradGradGradGradGradGradGradGradGradGradGradGradGradGrad

                          Input orientation:                          
 ---------------------------------------------------------------------
 Center     Atomic      Atomic             Coordinates (Angstroms)
 Number     Number       Type             X           Y           Z
 ---------------------------------------------------------------------
      1          6           0        1.441857   -0.665028    0.132341
      2          6           0        0.298112   -1.501421   -0.248294
      3          6           0       -0.969685   -1.159000   -0.113692
      4          6           0       -0.969664    1.159017   -0.113692
      5          6           0        0.298138    1.501416   -0.248294
      6          6           0        1.441868    0.665003    0.132341
      7          1           0        2.350400   -1.183409    0.387051
      8          1           0        0.504042   -2.465623   -0.679076
      9          1           0        0.504085    2.465614   -0.679076
     10          1           0        2.350421    1.183368    0.387051
     11          8           0       -1.397344    0.000012    0.477343
     12          1           0       -1.779375    1.793848   -0.422593
     13          1           0       -1.779406   -1.793816   -0.422592
 ---------------------------------------------------------------------
                    Distance matrix (angstroms):
                    1          2          3          4          5
     1  C    0.000000
     2  C    1.467171   0.000000
     3  C    2.473878   1.320105   0.000000
     4  C    3.033663   2.950137   2.318018   0.000000
     5  C    2.479205   3.002837   2.950137   1.320105   0.000000
     6  C    1.330031   2.479205   3.033663   2.473878   1.467171
     7  H    1.076591   2.171793   3.357723   4.093963   3.438565
     8  H    2.186330   1.075949   2.049096   3.953415   3.995669
     9  H    3.367304   3.995669   3.953415   2.049096   1.075949
    10  H    2.075315   3.438565   4.093963   3.357723   2.171793
    11  O    2.936387   2.378113   1.369498   1.369498   2.378113
    12  H    4.090275   3.899375   3.077390   1.074272   2.105221
    13  H    3.458128   2.105221   1.074272   3.077390   3.899375
                    6          7          8          9         10
     6  C    0.000000
     7  H    2.075315   0.000000
     8  H    3.367304   2.487919   0.000000
     9  H    2.186330   4.226213   4.931237   0.000000
    10  H    1.076591   2.366777   4.226213   2.487919   0.000000
    11  O    2.936387   3.931186   3.321435   3.321435   3.931186
    12  H    3.458128   5.155058   4.839718   2.394002   4.252460
    13  H    4.090275   4.252460   2.394002   4.839718   5.155058
                   11         12         13
    11  O    0.000000
    12  H    2.042958   0.000000
    13  H    2.042958   3.587664   0.000000
 Stoichiometry    C6H6O
 Framework group  C1[X(C6H6O)]
 Deg. of freedom    33
 Full point group                 C1      NOp   1
 Largest Abelian subgroup         C1      NOp   1
 Largest concise Abelian subgroup C1      NOp   1
                         Standard orientation:                         
 ---------------------------------------------------------------------
 Center     Atomic      Atomic             Coordinates (Angstroms)
 Number     Number       Type             X           Y           Z
 ---------------------------------------------------------------------
      1          6           0       -1.437620    0.665016    0.139043
      2          6           0       -0.293717    1.501419   -0.241097
      3          6           0        0.974024    1.159009   -0.105945
      4          6           0        0.974024   -1.159009   -0.105945
      5          6           0       -0.293717   -1.501419   -0.241097
      6          6           0       -1.437620   -0.665015    0.139043
      7          1           0       -2.346278    1.183388    0.393359
      8          1           0       -0.499469    2.465619   -0.671968
      9          1           0       -0.499470   -2.465619   -0.671968
     10          1           0       -2.346278   -1.183388    0.393359
     11          8           0        1.401437    0.000000    0.485275
     12          1           0        1.783873   -1.793832   -0.414495
     13          1           0        1.783873    1.793832   -0.414495
 ---------------------------------------------------------------------
 Rotational constants (GHZ):      4.0140289      3.8500370      2.0849108

 **********************************************************************

            Population analysis using the SCF density.

 **********************************************************************

 Orbital symmetries:
       Occupied  (A) (A) (A) (A) (A) (A) (A) (A) (A) (A) (A) (A)
                 (A) (A) (A) (A) (A) (A) (A) (A) (A) (A) (A) (A)
                 (A)
       Virtual   (A) (A) (A) (A) (A) (A) (A) (A) (A) (A) (A) (A)
                 (A) (A) (A) (A) (A) (A) (A) (A) (A) (A) (A) (A)
                 (A) (A) (A) (A) (A) (A) (A) (A) (A) (A) (A) (A)
                 (A) (A) (A) (A) (A) (A) (A) (A) (A) (A) (A) (A)
                 (A) (A) (A) (A) (A) (A) (A) (A) (A) (A) (A) (A)
                 (A) (A) (A) (A) (A) (A) (A) (A) (A) (A) (A) (A)
                 (A) (A) (A) (A) (A) (A) (A) (A) (A) (A) (A) (A)
                 (A) (A) (A) (A) (A) (A) (A) (A)
 The electronic state is 1-A.
 Alpha  occ. eigenvalues --  -20.58812 -11.29099 -11.29099 -11.23569 -11.23402
 Alpha  occ. eigenvalues --  -11.22802 -11.22802  -1.41926  -1.10237  -1.06635
 Alpha  occ. eigenvalues --   -0.96232  -0.88814  -0.75397  -0.75050  -0.71512
 Alpha  occ. eigenvalues --   -0.63762  -0.63133  -0.61462  -0.59199  -0.54905
 Alpha  occ. eigenvalues --   -0.49773  -0.47751  -0.43310  -0.37727  -0.29763
 Alpha virt. eigenvalues --    0.11531   0.20165   0.24430   0.26868   0.29390
 Alpha virt. eigenvalues --    0.29697   0.32615   0.33455   0.33642   0.34024
 Alpha virt. eigenvalues --    0.46585   0.49255   0.52243   0.56893   0.64403
 Alpha virt. eigenvalues --    0.68803   0.70593   0.72328   0.76779   0.77429
 Alpha virt. eigenvalues --    0.79022   0.80805   0.82257   0.82332   0.89187
 Alpha virt. eigenvalues --    0.89299   0.89769   0.91321   0.95328   1.01408
 Alpha virt. eigenvalues --    1.09008   1.11330   1.11731   1.13092   1.13947
 Alpha virt. eigenvalues --    1.15137   1.17092   1.17862   1.21920   1.24556
 Alpha virt. eigenvalues --    1.30228   1.31291   1.31806   1.40201   1.41506
 Alpha virt. eigenvalues --    1.43753   1.52984   1.62928   1.64227   1.68432
 Alpha virt. eigenvalues --    1.72794   1.76900   1.82430   1.85893   1.92010
 Alpha virt. eigenvalues --    1.94604   2.01859   2.09528   2.11926   2.17658
 Alpha virt. eigenvalues --    2.23041   2.26254   2.27992   2.33959   2.37943
 Alpha virt. eigenvalues --    2.43197   2.46675   2.48197   2.53753   2.57914
 Alpha virt. eigenvalues --    2.58885   2.71716   2.77570   2.81189   2.88388
 Alpha virt. eigenvalues --    2.91994   2.95120   2.98824   3.08393   3.14154
 Alpha virt. eigenvalues --    3.14416   3.25744   3.40119   3.49320   3.67664
 Alpha virt. eigenvalues --    4.43229   4.51080   4.57041   4.68114   4.68480
 Alpha virt. eigenvalues --    4.84135   5.00223
          Condensed to atoms (all electrons):
               1          2          3          4          5          6
     1  C    4.902495   0.384870  -0.051309  -0.005104  -0.050706   0.672571
     2  C    0.384870   5.045524   0.653203  -0.005211  -0.007874  -0.050706
     3  C   -0.051309   0.653203   4.643885  -0.015465  -0.005211  -0.005104
     4  C   -0.005104  -0.005211  -0.015465   4.643885   0.653203  -0.051309
     5  C   -0.050706  -0.007874  -0.005211   0.653203   5.045524   0.384870
     6  C    0.672571  -0.050706  -0.005104  -0.051309   0.384870   4.902495
     7  H    0.388632  -0.036485   0.002338   0.000055   0.003046  -0.033158
     8  H   -0.029055   0.376107  -0.027198  -0.000125  -0.000054   0.002380
     9  H    0.002380  -0.000054  -0.000125  -0.027198   0.376107  -0.029055
    10  H   -0.033158   0.003046   0.000055   0.002338  -0.036485   0.388632
    11  O   -0.000741  -0.060779   0.250693   0.250693  -0.060779  -0.000741
    12  H   -0.000080  -0.000254   0.003878   0.406638  -0.059293   0.003179
    13  H    0.003179  -0.059293   0.406638   0.003878  -0.000254  -0.000080
               7          8          9         10         11         12
     1  C    0.388632  -0.029055   0.002380  -0.033158  -0.000741  -0.000080
     2  C   -0.036485   0.376107  -0.000054   0.003046  -0.060779  -0.000254
     3  C    0.002338  -0.027198  -0.000125   0.000055   0.250693   0.003878
     4  C    0.000055  -0.000125  -0.027198   0.002338   0.250693   0.406638
     5  C    0.003046  -0.000054   0.376107  -0.036485  -0.060779  -0.059293
     6  C   -0.033158   0.002380  -0.029055   0.388632  -0.000741   0.003179
     7  H    0.485045  -0.000908  -0.000109  -0.003176   0.000043   0.000005
     8  H   -0.000908   0.475488   0.000007  -0.000109   0.002380   0.000013
     9  H   -0.000109   0.000007   0.475488  -0.000908   0.002380   0.000060
    10  H   -0.003176  -0.000109  -0.000908   0.485045   0.000043  -0.000075
    11  O    0.000043   0.002380   0.002380   0.000043   8.322013  -0.043458
    12  H    0.000005   0.000013   0.000060  -0.000075  -0.043458   0.493481
    13  H   -0.000075   0.000060   0.000013   0.000005  -0.043458   0.000176
              13
     1  C    0.003179
     2  C   -0.059293
     3  C    0.406638
     4  C    0.003878
     5  C   -0.000254
     6  C   -0.000080
     7  H   -0.000075
     8  H    0.000060
     9  H    0.000013
    10  H    0.000005
    11  O   -0.043458
    12  H    0.000176
    13  H    0.493481
 Mulliken charges:
               1
     1  C   -0.183975
     2  C   -0.242095
     3  C    0.143722
     4  C    0.143722
     5  C   -0.242095
     6  C   -0.183975
     7  H    0.194748
     8  H    0.201013
     9  H    0.201013
    10  H    0.194748
    11  O   -0.618291
    12  H    0.195731
    13  H    0.195731
 Sum of Mulliken charges =   0.00000
 Mulliken charges with hydrogens summed into heavy atoms:
               1
     1  C    0.010774
     2  C   -0.041081
     3  C    0.339453
     4  C    0.339453
     5  C   -0.041081
     6  C    0.010774
    11  O   -0.618291
 Electronic spatial extent (au):  <R**2>=            605.8610
 Charge=              0.0000 electrons
 Dipole moment (field-independent basis, Debye):
    X=             -0.5567    Y=              0.0000    Z=             -1.2302  Tot=              1.3503
 Quadrupole moment (field-independent basis, Debye-Ang):
   XX=            -38.0465   YY=            -35.1908   ZZ=            -44.3204
   XY=              0.0000   XZ=             -2.6109   YZ=              0.0000
 Traceless Quadrupole moment (field-independent basis, Debye-Ang):
   XX=              1.1394   YY=              3.9950   ZZ=             -5.1345
   XY=              0.0000   XZ=             -2.6109   YZ=              0.0000
 Octapole moment (field-independent basis, Debye-Ang**2):
  XXX=              2.2539  YYY=              0.0000  ZZZ=              2.1309  XYY=              2.9289
  XXY=              0.0000  XXZ=             -0.6802  XZZ=              2.4451  YZZ=              0.0000
  YYZ=             -5.2394  XYZ=              0.0000
 Hexadecapole moment (field-independent basis, Debye-Ang**3):
 XXXX=           -351.8730 YYYY=           -355.0667 ZZZZ=            -66.5953 XXXY=              0.0000
 XXXZ=            -11.5934 YYYX=              0.0000 YYYZ=              0.0000 ZZZX=              2.6859
 ZZZY=              0.0000 XXYY=           -105.4317 XXZZ=            -76.1740 YYZZ=            -75.2097
 XXYZ=              0.0000 YYXZ=             -1.0576 ZZXY=              0.0000
 N-N= 2.769997158272D+02 E-N=-1.268388802118D+03  KE= 3.051332079624D+02
 1\1\GINC-QC0019\FOpt\RHF\6-31G(d)\C6H6O1\ELIOT\05-Oct-2018\0\\# opt hf
 /6-31g*\\oxepin.log\\0,1\C,1.4418567475,-0.665028059,0.132341333\C,0.2
 981117298,-1.5014212053,-0.2482938735\C,-0.9696847266,-1.1590003992,-0
 .1136916553\C,-0.9696644048,1.1590174369,-0.1136918054\C,0.2981380487,
 1.501416027,-0.2482939305\C,1.441868393,0.6650028263,0.1323413657\H,2.
 3504002045,-1.1834089306,0.3870513723\H,0.5040422046,-2.4656231424,-0.
 6790761511\H,0.5040854965,2.4656142885,-0.6790763043\H,2.3504209328,1.
 1833677506,0.3870514743\O,-1.397344207,0.0000122836,0.4773430001\H,-1.
 7793745042,1.793847579,-0.4225925514\H,-1.7794059148,-1.7938164555,-0.
 4225922737\\Version=ES64L-G09RevE.01\State=1-A\HF=-305.4898127\RMSD=9.
 066e-09\RMSF=2.811e-05\Dipole=0.2192519,-0.0000019,-0.4839009\Quadrupo
 le=0.8454661,2.9702213,-3.8156874,0.0000187,1.9431479,-0.0000174\PG=C0
 1 [X(C6H6O1)]\\@


  THE LARGE PRINT GIVETH,
  AND THE SMALL PRINT TAKETH AWAY.

                     -- TOM WAITS
 Job cpu time:       0 days  0 hours  0 minutes 24.9 seconds.
 File lengths (MBytes):  RWF=      8 Int=      0 D2E=      0 Chk=      2 Scr=      1
 Normal termination of Gaussian 09 at Fri Oct  5 09:50:54 2018.
