 Entering Gaussian System, Link 0=/home/eliot/software/g09E01/g09
 Initial command:
 /home/eliot/software/g09E01/l1.exe "/tmp/Gau-6433.inp" -scrdir="/tmp/"
 Entering Link 1 = /home/eliot/software/g09E01/l1.exe PID=      6435.
  
 Copyright (c) 1988,1990,1992,1993,1995,1998,2003,2009,2015,
            Gaussian, Inc.  All Rights Reserved.
  
 This is part of the Gaussian(R) 09 program.  It is based on
 the Gaussian(R) 03 system (copyright 2003, Gaussian, Inc.),
 the Gaussian(R) 98 system (copyright 1998, Gaussian, Inc.),
 the Gaussian(R) 94 system (copyright 1995, Gaussian, Inc.),
 the Gaussian 92(TM) system (copyright 1992, Gaussian, Inc.),
 the Gaussian 90(TM) system (copyright 1990, Gaussian, Inc.),
 the Gaussian 88(TM) system (copyright 1988, Gaussian, Inc.),
 the Gaussian 86(TM) system (copyright 1986, Carnegie Mellon
 University), and the Gaussian 82(TM) system (copyright 1983,
 Carnegie Mellon University). Gaussian is a federally registered
 trademark of Gaussian, Inc.
  
 This software contains proprietary and confidential information,
 including trade secrets, belonging to Gaussian, Inc.
  
 This software is provided under written license and may be
 used, copied, transmitted, or stored only in accord with that
 written license.
  
 The following legend is applicable only to US Government
 contracts under FAR:
  
                    RESTRICTED RIGHTS LEGEND
  
 Use, reproduction and disclosure by the US Government is
 subject to restrictions as set forth in subparagraphs (a)
 and (c) of the Commercial Computer Software - Restricted
 Rights clause in FAR 52.227-19.
  
 Gaussian, Inc.
 340 Quinnipiac St., Bldg. 40, Wallingford CT 06492
  
  
 ---------------------------------------------------------------
 Warning -- This program may not be used in any manner that
 competes with the business of Gaussian, Inc. or will provide
 assistance to any competitor of Gaussian, Inc.  The licensee
 of this program is prohibited from giving any competitor of
 Gaussian, Inc. access to this program.  By using this program,
 the user acknowledges that Gaussian, Inc. is engaged in the
 business of creating and licensing software in the field of
 computational chemistry and represents and warrants to the
 licensee that it is not a competitor of Gaussian, Inc. and that
 it will not use this program in any manner prohibited above.
 ---------------------------------------------------------------
  

 Cite this work as:
 Gaussian 09, Revision E.01,
 M. J. Frisch, G. W. Trucks, H. B. Schlegel, G. E. Scuseria, 
 M. A. Robb, J. R. Cheeseman, G. Scalmani, V. Barone, B. Mennucci, 
 G. A. Petersson, H. Nakatsuji, M. Caricato, X. Li, H. P. Hratchian, 
 A. F. Izmaylov, J. Bloino, G. Zheng, J. L. Sonnenberg, M. Hada, 
 M. Ehara, K. Toyota, R. Fukuda, J. Hasegawa, M. Ishida, T. Nakajima, 
 Y. Honda, O. Kitao, H. Nakai, T. Vreven, J. A. Montgomery, Jr., 
 J. E. Peralta, F. Ogliaro, M. Bearpark, J. J. Heyd, E. Brothers, 
 K. N. Kudin, V. N. Staroverov, T. Keith, R. Kobayashi, J. Normand, 
 K. Raghavachari, A. Rendell, J. C. Burant, S. S. Iyengar, J. Tomasi, 
 M. Cossi, N. Rega, J. M. Millam, M. Klene, J. E. Knox, J. B. Cross, 
 V. Bakken, C. Adamo, J. Jaramillo, R. Gomperts, R. E. Stratmann, 
 O. Yazyev, A. J. Austin, R. Cammi, C. Pomelli, J. W. Ochterski, 
 R. L. Martin, K. Morokuma, V. G. Zakrzewski, G. A. Voth, 
 P. Salvador, J. J. Dannenberg, S. Dapprich, A. D. Daniels, 
 O. Farkas, J. B. Foresman, J. V. Ortiz, J. Cioslowski, 
 and D. J. Fox, Gaussian, Inc., Wallingford CT, 2013.
 
 ******************************************
 Gaussian 09:  ES64L-G09RevE.01 30-Nov-2015
                 5-Oct-2018 
 ******************************************
 %nproc=2
 Will use up to    2 processors via shared memory.
 ----------------
 # freq hf/6-31g*
 ----------------
 1/10=4,30=1,38=1/1,3;
 2/12=2,17=6,18=5,40=1/2;
 3/5=1,6=6,7=1,11=9,16=1,25=1,30=1,71=2,140=1/1,2,3;
 4//1;
 5/5=2,38=5,98=1/2;
 8/6=4,10=90,11=11/1;
 10/13=10,15=4/2;
 11/6=3,8=1,9=11,15=111,16=1/1,2,10;
 10/6=1/2;
 6/7=2,8=2,9=2,10=2,18=1,28=1/1;
 7/8=1,10=1,25=1/1,2,3,16;
 1/10=4,30=1/3;
 99//99;
 -------------
 oxepin-hf.log
 -------------
 Symbolic Z-matrix:
 Charge =  0 Multiplicity = 1
 C                    -1.43762   0.66502   0.13904 
 C                    -0.29372   1.50142  -0.2411 
 C                     0.97402   1.15901  -0.10594 
 C                     0.97402  -1.15901  -0.10594 
 C                    -0.29372  -1.50142  -0.2411 
 C                    -1.43762  -0.66502   0.13904 
 H                    -2.34628   1.18339   0.39336 
 H                    -0.49947   2.46562  -0.67197 
 H                    -0.49947  -2.46562  -0.67197 
 H                    -2.34628  -1.18339   0.39336 
 O                     1.40144   0.        0.48528 
 H                     1.78387  -1.79383  -0.4145 
 H                     1.78387   1.79383  -0.4145 
 

 GradGradGradGradGradGradGradGradGradGradGradGradGradGradGradGradGradGrad
 Berny optimization.
 Initialization pass.
 Trust Radius=3.00D-01 FncErr=1.00D-07 GrdErr=1.00D-07
 Number of steps in this run=      2 maximum allowed number of steps=      2.
 GradGradGradGradGradGradGradGradGradGradGradGradGradGradGradGradGradGrad

                          Input orientation:                          
 ---------------------------------------------------------------------
 Center     Atomic      Atomic             Coordinates (Angstroms)
 Number     Number       Type             X           Y           Z
 ---------------------------------------------------------------------
      1          6           0       -1.437620    0.665020    0.139040
      2          6           0       -0.293720    1.501420   -0.241100
      3          6           0        0.974020    1.159010   -0.105940
      4          6           0        0.974020   -1.159010   -0.105940
      5          6           0       -0.293720   -1.501420   -0.241100
      6          6           0       -1.437620   -0.665020    0.139040
      7          1           0       -2.346280    1.183390    0.393360
      8          1           0       -0.499470    2.465620   -0.671970
      9          1           0       -0.499470   -2.465620   -0.671970
     10          1           0       -2.346280   -1.183390    0.393360
     11          8           0        1.401440    0.000000    0.485280
     12          1           0        1.783870   -1.793830   -0.414500
     13          1           0        1.783870    1.793830   -0.414500
 ---------------------------------------------------------------------
                    Distance matrix (angstroms):
                    1          2          3          4          5
     1  C    0.000000
     2  C    1.467167   0.000000
     3  C    2.473873   1.320105   0.000000
     4  C    3.033662   2.950139   2.318020   0.000000
     5  C    2.479209   3.002840   2.950139   1.320105   0.000000
     6  C    1.330040   2.479209   3.033662   2.473873   1.467167
     7  H    1.076591   2.171793   3.357721   4.093963   3.438568
     8  H    2.186326   1.075948   2.049096   3.953417   3.995671
     9  H    3.367309   3.995671   3.953417   2.049096   1.075948
    10  H    2.075322   3.438568   4.093963   3.357721   2.171793
    11  O    2.936392   2.378121   1.369501   1.369501   2.378121
    12  H    4.090275   3.899374   3.077390   1.074273   2.105220
    13  H    3.458123   2.105220   1.074273   3.077390   3.899374
                    6          7          8          9         10
     6  C    0.000000
     7  H    2.075322   0.000000
     8  H    3.367309   2.487921   0.000000
     9  H    2.186326   4.226217   4.931240   0.000000
    10  H    1.076591   2.366780   4.226217   2.487921   0.000000
    11  O    2.936392   3.931191   3.321441   3.321441   3.931191
    12  H    3.458123   5.155057   4.839716   2.394000   4.252460
    13  H    4.090275   4.252460   2.394000   4.839716   5.155057
                   11         12         13
    11  O    0.000000
    12  H    2.042959   0.000000
    13  H    2.042959   3.587660   0.000000
 Stoichiometry    C6H6O
 Framework group  CS[SG(O),X(C6H6)]
 Deg. of freedom    17
 Full point group                 CS      NOp   2
 Largest Abelian subgroup         CS      NOp   2
 Largest concise Abelian subgroup CS      NOp   2
                         Standard orientation:                         
 ---------------------------------------------------------------------
 Center     Atomic      Atomic             Coordinates (Angstroms)
 Number     Number       Type             X           Y           Z
 ---------------------------------------------------------------------
      1          6           0        0.290664   -1.414777    0.665020
      2          6           0       -0.208603   -0.317623    1.501420
      3          6           0       -0.208603    0.957301    1.159010
      4          6           0       -0.208603    0.957301   -1.159010
      5          6           0       -0.208603   -0.317623   -1.501420
      6          6           0        0.290664   -1.414777   -0.665020
      7          1           0        0.639881   -2.291355    1.183390
      8          1           0       -0.615233   -0.567892    2.465620
      9          1           0       -0.615233   -0.567892   -2.465620
     10          1           0        0.639881   -2.291355   -1.183390
     11          8           0        0.333972    1.444990    0.000000
     12          1           0       -0.601280    1.729876   -1.793830
     13          1           0       -0.601280    1.729876    1.793830
 ---------------------------------------------------------------------
 Rotational constants (GHZ):      4.0140168      3.8500343      2.0849080
 Standard basis: 6-31G(d) (6D, 7F)
 There are    62 symmetry adapted cartesian basis functions of A'  symmetry.
 There are    55 symmetry adapted cartesian basis functions of A"  symmetry.
 There are    62 symmetry adapted basis functions of A'  symmetry.
 There are    55 symmetry adapted basis functions of A"  symmetry.
   117 basis functions,   220 primitive gaussians,   117 cartesian basis functions
    25 alpha electrons       25 beta electrons
       nuclear repulsion energy       276.9994667030 Hartrees.
 NAtoms=   13 NActive=   13 NUniq=    7 SFac= 3.45D+00 NAtFMM=   60 NAOKFM=F Big=F
 Integral buffers will be    131072 words long.
 Raffenetti 1 integral format.
 Two-electron integral symmetry is turned on.
 One-electron integrals computed using PRISM.
 NBasis=   117 RedAO= T EigKep=  8.55D-04  NBF=    62    55
 NBsUse=   117 1.00D-06 EigRej= -1.00D+00 NBFU=    62    55
 ExpMin= 1.61D-01 ExpMax= 5.48D+03 ExpMxC= 8.25D+02 IAcc=1 IRadAn=         1 AccDes= 0.00D+00
 Harris functional with IExCor=  205 and IRadAn=       1 diagonalized for initial guess.
 HarFok:  IExCor=  205 AccDes= 0.00D+00 IRadAn=         1 IDoV= 1 UseB2=F ITyADJ=14
 ICtDFT=  3500011 ScaDFX=  1.000000  1.000000  1.000000  1.000000
 FoFCou: FMM=F IPFlag=           0 FMFlag=      100000 FMFlg1=           0
         NFxFlg=           0 DoJE=T BraDBF=F KetDBF=T FulRan=T
         wScrn=  0.000000 ICntrl=     500 IOpCl=  0 I1Cent=   200000004 NGrid=           0
         NMat0=    1 NMatS0=      1 NMatT0=    0 NMatD0=    1 NMtDS0=    0 NMtDT0=    0
 Petite list used in FoFCou.
 Initial guess orbital symmetries:
       Occupied  (A') (A') (A") (A') (A") (A") (A') (A') (A') (A")
                 (A') (A") (A") (A') (A') (A") (A') (A') (A") (A')
                 (A") (A') (A') (A") (A')
       Virtual   (A") (A') (A") (A') (A') (A") (A') (A') (A") (A")
                 (A") (A') (A") (A') (A") (A") (A') (A') (A') (A")
                 (A') (A") (A') (A') (A") (A') (A") (A') (A") (A")
                 (A") (A') (A") (A') (A") (A') (A") (A') (A') (A")
                 (A') (A') (A") (A') (A') (A") (A") (A") (A") (A')
                 (A') (A') (A') (A") (A") (A') (A') (A") (A') (A")
                 (A') (A') (A") (A") (A') (A') (A') (A") (A") (A")
                 (A') (A") (A') (A') (A') (A") (A") (A") (A') (A")
                 (A') (A") (A") (A') (A") (A') (A') (A") (A') (A")
                 (A') (A")
 The electronic state of the initial guess is 1-A'.
 Requested convergence on RMS density matrix=1.00D-08 within 128 cycles.
 Requested convergence on MAX density matrix=1.00D-06.
 Requested convergence on             energy=1.00D-06.
 No special actions if energy rises.
 Integral accuracy reduced to 1.0D-05 until final iterations.
 Initial convergence to 1.0D-05 achieved.  Increase integral accuracy.
 SCF Done:  E(RHF) =  -305.489812665     A.U. after   13 cycles
            NFock= 13  Conv=0.99D-08     -V/T= 2.0012
 Range of M.O.s used for correlation:     1   117
 NBasis=   117 NAE=    25 NBE=    25 NFC=     0 NFV=     0
 NROrb=    117 NOA=    25 NOB=    25 NVA=    92 NVB=    92
          Differentiating once with respect to electric field.
                with respect to dipole field.
          Electric field/nuclear overlap derivatives assumed to be zero.
          There are     3 degrees of freedom in the 1st order CPHF.  IDoFFX=0 NUNeed=     3.
      3 vectors produced by pass  0 Test12= 7.67D-14 3.33D-08 XBig12= 2.38D+01 2.73D+00.
 AX will form     3 AO Fock derivatives at one time.
      3 vectors produced by pass  1 Test12= 7.67D-14 3.33D-08 XBig12= 2.20D+00 3.60D-01.
      3 vectors produced by pass  2 Test12= 7.67D-14 3.33D-08 XBig12= 2.45D-01 1.63D-01.
      3 vectors produced by pass  3 Test12= 7.67D-14 3.33D-08 XBig12= 2.28D-02 7.59D-02.
      3 vectors produced by pass  4 Test12= 7.67D-14 3.33D-08 XBig12= 2.90D-03 1.04D-02.
      3 vectors produced by pass  5 Test12= 7.67D-14 3.33D-08 XBig12= 3.62D-04 7.59D-03.
      3 vectors produced by pass  6 Test12= 7.67D-14 3.33D-08 XBig12= 1.57D-05 1.21D-03.
      3 vectors produced by pass  7 Test12= 7.67D-14 3.33D-08 XBig12= 1.54D-06 3.14D-04.
      3 vectors produced by pass  8 Test12= 7.67D-14 3.33D-08 XBig12= 9.25D-08 6.09D-05.
      3 vectors produced by pass  9 Test12= 7.67D-14 3.33D-08 XBig12= 2.24D-09 1.40D-05.
      3 vectors produced by pass 10 Test12= 7.67D-14 3.33D-08 XBig12= 1.11D-10 2.34D-06.
      1 vectors produced by pass 11 Test12= 7.67D-14 3.33D-08 XBig12= 2.80D-12 3.29D-07.
      1 vectors produced by pass 12 Test12= 7.67D-14 3.33D-08 XBig12= 6.22D-14 4.08D-08.
 InvSVY:  IOpt=1 It=  1 EMax= 8.88D-16
 Solved reduced A of dimension    35 with     3 vectors.
 End of Minotr F.D. properties file   721 does not exist.
 End of Minotr F.D. properties file   722 does not exist.
 End of Minotr F.D. properties file   788 does not exist.
 Symmetrizing basis deriv contribution to polar:
 IMax=3 JMax=2 DiffMx= 0.00D+00
 G2DrvN: will do    14 centers at a time, making    1 passes.
 PxScal for G2LodP:  IOpCl= 0 ISclPx=1 IMOff=     1 NMtTot=     4 NTT=    6903 ScalPx= 1.43D+00
 Calling FoFCou, ICntrl=  3107 FMM=F I1Cent=   0 AccDes= 0.00D+00.
 End of G2Drv F.D. properties file   721 does not exist.
 End of G2Drv F.D. properties file   722 does not exist.
 End of G2Drv F.D. properties file   788 does not exist.
          IDoAtm=1111111111111
          Differentiating once with respect to electric field.
                with respect to dipole field.
          Differentiating once with respect to nuclear coordinates.
          There are    24 degrees of freedom in the 1st order CPHF.  IDoFFX=4 NUNeed=    24.
 Will reuse    3 saved solutions.
     21 vectors produced by pass  0 Test12= 9.58D-15 4.17D-09 XBig12= 5.45D-02 5.24D-02.
 AX will form    21 AO Fock derivatives at one time.
     21 vectors produced by pass  1 Test12= 9.58D-15 4.17D-09 XBig12= 4.36D-03 1.89D-02.
     21 vectors produced by pass  2 Test12= 9.58D-15 4.17D-09 XBig12= 2.67D-04 5.34D-03.
     21 vectors produced by pass  3 Test12= 9.58D-15 4.17D-09 XBig12= 5.76D-06 3.65D-04.
     21 vectors produced by pass  4 Test12= 9.58D-15 4.17D-09 XBig12= 8.90D-08 3.95D-05.
     21 vectors produced by pass  5 Test12= 9.58D-15 4.17D-09 XBig12= 1.26D-09 5.94D-06.
     21 vectors produced by pass  6 Test12= 9.58D-15 4.17D-09 XBig12= 9.83D-12 4.20D-07.
     13 vectors produced by pass  7 Test12= 9.58D-15 4.17D-09 XBig12= 7.29D-14 3.77D-08.
 InvSVY:  IOpt=1 It=  1 EMax= 2.22D-16
 Solved reduced A of dimension   160 with    24 vectors.
 Isotropic polarizability for W=    0.000000       56.08 Bohr**3.
 End of Minotr F.D. properties file   721 does not exist.
 End of Minotr F.D. properties file   722 does not exist.
 End of Minotr F.D. properties file   788 does not exist.

 **********************************************************************

            Population analysis using the SCF density.

 **********************************************************************

 Orbital symmetries:
       Occupied  (A') (A") (A') (A') (A") (A") (A') (A') (A') (A")
                 (A') (A") (A") (A') (A') (A") (A') (A') (A") (A')
                 (A") (A') (A') (A") (A')
       Virtual   (A") (A') (A') (A") (A") (A') (A') (A") (A') (A")
                 (A") (A') (A") (A') (A") (A') (A") (A') (A') (A")
                 (A') (A') (A") (A') (A") (A') (A") (A') (A") (A")
                 (A") (A') (A") (A') (A") (A') (A") (A') (A') (A")
                 (A') (A") (A') (A") (A') (A') (A") (A") (A") (A')
                 (A') (A') (A') (A") (A") (A') (A') (A") (A') (A")
                 (A') (A') (A") (A") (A') (A') (A') (A") (A") (A')
                 (A") (A") (A') (A') (A') (A") (A") (A") (A') (A")
                 (A') (A") (A") (A') (A") (A') (A') (A") (A') (A")
                 (A') (A")
 The electronic state is 1-A'.
 Alpha  occ. eigenvalues --  -20.58812 -11.29099 -11.29099 -11.23569 -11.23402
 Alpha  occ. eigenvalues --  -11.22802 -11.22802  -1.41925  -1.10237  -1.06635
 Alpha  occ. eigenvalues --   -0.96231  -0.88814  -0.75397  -0.75050  -0.71512
 Alpha  occ. eigenvalues --   -0.63762  -0.63133  -0.61462  -0.59199  -0.54905
 Alpha  occ. eigenvalues --   -0.49774  -0.47751  -0.43310  -0.37727  -0.29763
 Alpha virt. eigenvalues --    0.11531   0.20165   0.24430   0.26868   0.29390
 Alpha virt. eigenvalues --    0.29697   0.32615   0.33455   0.33642   0.34024
 Alpha virt. eigenvalues --    0.46585   0.49255   0.52243   0.56893   0.64402
 Alpha virt. eigenvalues --    0.68803   0.70593   0.72328   0.76779   0.77429
 Alpha virt. eigenvalues --    0.79022   0.80805   0.82257   0.82332   0.89187
 Alpha virt. eigenvalues --    0.89299   0.89768   0.91321   0.95327   1.01408
 Alpha virt. eigenvalues --    1.09007   1.11330   1.11731   1.13092   1.13947
 Alpha virt. eigenvalues --    1.15137   1.17092   1.17862   1.21920   1.24556
 Alpha virt. eigenvalues --    1.30228   1.31291   1.31806   1.40201   1.41506
 Alpha virt. eigenvalues --    1.43753   1.52984   1.62927   1.64227   1.68432
 Alpha virt. eigenvalues --    1.72794   1.76900   1.82430   1.85893   1.92010
 Alpha virt. eigenvalues --    1.94604   2.01859   2.09528   2.11926   2.17658
 Alpha virt. eigenvalues --    2.23041   2.26254   2.27992   2.33959   2.37943
 Alpha virt. eigenvalues --    2.43197   2.46675   2.48197   2.53752   2.57914
 Alpha virt. eigenvalues --    2.58884   2.71716   2.77570   2.81189   2.88389
 Alpha virt. eigenvalues --    2.91994   2.95120   2.98824   3.08392   3.14154
 Alpha virt. eigenvalues --    3.14416   3.25744   3.40119   3.49320   3.67664
 Alpha virt. eigenvalues --    4.43229   4.51080   4.57042   4.68114   4.68481
 Alpha virt. eigenvalues --    4.84135   5.00223
          Condensed to atoms (all electrons):
               1          2          3          4          5          6
     1  C    4.902499   0.384870  -0.051310  -0.005104  -0.050706   0.672569
     2  C    0.384870   5.045523   0.653202  -0.005211  -0.007873  -0.050706
     3  C   -0.051310   0.653202   4.643885  -0.015465  -0.005211  -0.005104
     4  C   -0.005104  -0.005211  -0.015465   4.643885   0.653202  -0.051310
     5  C   -0.050706  -0.007873  -0.005211   0.653202   5.045523   0.384870
     6  C    0.672569  -0.050706  -0.005104  -0.051310   0.384870   4.902499
     7  H    0.388632  -0.036486   0.002338   0.000055   0.003046  -0.033157
     8  H   -0.029055   0.376107  -0.027198  -0.000125  -0.000054   0.002380
     9  H    0.002380  -0.000054  -0.000125  -0.027198   0.376107  -0.029055
    10  H   -0.033157   0.003046   0.000055   0.002338  -0.036486   0.388632
    11  O   -0.000741  -0.060777   0.250693   0.250693  -0.060777  -0.000741
    12  H   -0.000080  -0.000254   0.003878   0.406637  -0.059293   0.003179
    13  H    0.003179  -0.059293   0.406637   0.003878  -0.000254  -0.000080
               7          8          9         10         11         12
     1  C    0.388632  -0.029055   0.002380  -0.033157  -0.000741  -0.000080
     2  C   -0.036486   0.376107  -0.000054   0.003046  -0.060777  -0.000254
     3  C    0.002338  -0.027198  -0.000125   0.000055   0.250693   0.003878
     4  C    0.000055  -0.000125  -0.027198   0.002338   0.250693   0.406637
     5  C    0.003046  -0.000054   0.376107  -0.036486  -0.060777  -0.059293
     6  C   -0.033157   0.002380  -0.029055   0.388632  -0.000741   0.003179
     7  H    0.485045  -0.000908  -0.000109  -0.003176   0.000043   0.000005
     8  H   -0.000908   0.475486   0.000007  -0.000109   0.002380   0.000013
     9  H   -0.000109   0.000007   0.475486  -0.000908   0.002380   0.000060
    10  H   -0.003176  -0.000109  -0.000908   0.485045   0.000043  -0.000075
    11  O    0.000043   0.002380   0.002380   0.000043   8.322013  -0.043459
    12  H    0.000005   0.000013   0.000060  -0.000075  -0.043459   0.493482
    13  H   -0.000075   0.000060   0.000013   0.000005  -0.043459   0.000176
              13
     1  C    0.003179
     2  C   -0.059293
     3  C    0.406637
     4  C    0.003878
     5  C   -0.000254
     6  C   -0.000080
     7  H   -0.000075
     8  H    0.000060
     9  H    0.000013
    10  H    0.000005
    11  O   -0.043459
    12  H    0.000176
    13  H    0.493482
 Mulliken charges:
               1
     1  C   -0.183976
     2  C   -0.242094
     3  C    0.143724
     4  C    0.143724
     5  C   -0.242094
     6  C   -0.183976
     7  H    0.194748
     8  H    0.201014
     9  H    0.201014
    10  H    0.194748
    11  O   -0.618294
    12  H    0.195730
    13  H    0.195730
 Sum of Mulliken charges =   0.00000
 Mulliken charges with hydrogens summed into heavy atoms:
               1
     1  C    0.010772
     2  C   -0.041080
     3  C    0.339454
     4  C    0.339454
     5  C   -0.041080
     6  C    0.010772
    11  O   -0.618294
 APT charges:
               1
     1  C    0.010718
     2  C   -0.104246
     3  C    0.398834
     4  C    0.398834
     5  C   -0.104246
     6  C    0.010718
     7  H    0.006613
     8  H    0.022647
     9  H    0.022647
    10  H    0.006613
    11  O   -0.703596
    12  H    0.017232
    13  H    0.017232
 Sum of APT charges =   0.00000
 APT charges with hydrogens summed into heavy atoms:
               1
     1  C    0.017331
     2  C   -0.081599
     3  C    0.416065
     4  C    0.416065
     5  C   -0.081599
     6  C    0.017331
    11  O   -0.703596
 Electronic spatial extent (au):  <R**2>=            605.8618
 Charge=              0.0000 electrons
 Dipole moment (field-independent basis, Debye):
    X=             -1.1642    Y=             -0.6840    Z=              0.0000  Tot=              1.3503
 Quadrupole moment (field-independent basis, Debye-Ang):
   XX=            -43.6994   YY=            -38.6675   ZZ=            -35.1908
   XY=             -3.2136   XZ=              0.0000   YZ=              0.0000
 Traceless Quadrupole moment (field-independent basis, Debye-Ang):
   XX=             -4.5135   YY=              0.5184   ZZ=              3.9951
   XY=             -3.2136   XZ=              0.0000   YZ=              0.0000
 Octapole moment (field-independent basis, Debye-Ang**2):
  XXX=              1.3006  YYY=              2.0866  ZZZ=              0.0000  XYY=             -0.3563
  XXY=              2.7397  XXZ=              0.0000  XZZ=             -5.5204  YZZ=              2.3568
  YYZ=              0.0000  XYZ=              0.0000
 Hexadecapole moment (field-independent basis, Debye-Ang**3):
 XXXX=            -71.2951 YYYY=           -353.9171 ZZZZ=           -355.0672 XXXY=             19.1749
 XXXZ=              0.0000 YYYX=              2.1898 YYYZ=              0.0000 ZZZX=              0.0000
 ZZZY=              0.0000 XXYY=            -72.8025 XXZZ=            -75.3265 YYZZ=           -105.3153
 XXYZ=              0.0000 YYXZ=              0.0000 ZZXY=              2.1519
 N-N= 2.769994667030D+02 E-N=-1.268388267557D+03  KE= 3.051331732978D+02
 Symmetry A'   KE= 1.891976087976D+02
 Symmetry A"   KE= 1.159355645002D+02
  Exact polarizability:  28.190  -7.126  71.146   0.000   0.000  68.919
 Approx polarizability:  29.933  -4.304  66.413   0.000   0.000  59.861
 Calling FoFJK, ICntrl=    100127 FMM=F ISym2X=1 I1Cent= 0 IOpClX= 0 NMat=1 NMatS=1 NMatT=0.
 Full mass-weighted force constant matrix:
 Low frequencies ---   -3.0907   -2.2154   -0.4360    0.0006    0.0037    0.0185
 Low frequencies ---  189.1265  301.8865  400.7379
 Diagonal vibrational polarizability:
       10.7218699       3.0477222       4.6281535
 Diagonal vibrational hyperpolarizability:
      -83.2621827     -10.1066640      -0.0000033
 Harmonic frequencies (cm**-1), IR intensities (KM/Mole), Raman scattering
 activities (A**4/AMU), depolarization ratios for plane and unpolarized
 incident light, reduced masses (AMU), force constants (mDyne/A),
 and normal coordinates:
                      1                      2                      3
                     A'                     A"                     A'
 Frequencies --    189.1265               301.8865               400.7379
 Red. masses --      3.9823                 2.8515                 5.2981
 Frc consts  --      0.0839                 0.1531                 0.5013
 IR Inten    --      5.8597                 2.3602                 4.3457
 Raman Activ --      2.8646                 2.9207                 3.2426
 Depolar (P) --      0.7496                 0.7500                 0.7380
 Depolar (U) --      0.8569                 0.8571                 0.8493
  Atom  AN      X      Y      Z        X      Y      Z        X      Y      Z
     1   6     0.10   0.11   0.00     0.18   0.03   0.02     0.06  -0.17  -0.01
     2   6    -0.15   0.01  -0.03     0.10  -0.02   0.03    -0.10  -0.04  -0.27
     3   6    -0.09   0.00  -0.07    -0.18  -0.05  -0.05     0.04   0.02  -0.12
     4   6    -0.09   0.00   0.07     0.18   0.05  -0.05     0.04   0.02   0.12
     5   6    -0.15   0.01   0.03    -0.10   0.02   0.03    -0.10  -0.04   0.27
     6   6     0.10   0.11   0.00    -0.18  -0.03   0.02     0.06  -0.17   0.01
     7   1     0.25   0.17   0.01     0.32   0.05  -0.03     0.07  -0.07   0.14
     8   1    -0.36  -0.04  -0.13     0.02  -0.07  -0.02    -0.36   0.02  -0.36
     9   1    -0.36  -0.04   0.13    -0.02   0.07  -0.02    -0.36   0.02   0.36
    10   1     0.25   0.17  -0.01    -0.32  -0.05  -0.03     0.07  -0.07  -0.14
    11   8     0.26  -0.21   0.00     0.00   0.00   0.03     0.05   0.30   0.00
    12   1    -0.28   0.06   0.25     0.51   0.10  -0.20    -0.11  -0.13   0.04
    13   1    -0.28   0.06  -0.25    -0.51  -0.10  -0.20    -0.11  -0.13  -0.04
                      4                      5                      6
                     A'                     A"                     A"
 Frequencies --    461.9890               486.1411               689.9210
 Red. masses --      2.1133                 5.2809                 3.2637
 Frc consts  --      0.2658                 0.7353                 0.9153
 IR Inten    --     31.2112                 1.5587                 0.0059
 Raman Activ --      5.7278                 5.5076                 1.7550
 Depolar (P) --      0.6467                 0.7500                 0.7500
 Depolar (U) --      0.7855                 0.8571                 0.8571
  Atom  AN      X      Y      Z        X      Y      Z        X      Y      Z
     1   6    -0.03  -0.04   0.01     0.11   0.21  -0.17     0.18   0.01   0.10
     2   6     0.15   0.03   0.00    -0.07   0.14  -0.09    -0.14  -0.07  -0.05
     3   6    -0.11   0.02  -0.09    -0.02   0.19   0.17     0.16  -0.07  -0.01
     4   6    -0.11   0.02   0.09     0.02  -0.19   0.17    -0.16   0.07  -0.01
     5   6     0.15   0.03   0.00     0.07  -0.14  -0.09     0.14   0.07  -0.05
     6   6    -0.03  -0.04  -0.01    -0.11  -0.21  -0.17    -0.18  -0.01   0.10
     7   1    -0.41  -0.20  -0.01     0.23   0.34  -0.02     0.33   0.06   0.09
     8   1     0.10   0.03  -0.02    -0.09  -0.12  -0.17    -0.47  -0.05  -0.18
     9   1     0.10   0.03   0.02     0.09   0.12  -0.17     0.47   0.05  -0.18
    10   1    -0.41  -0.20   0.01    -0.23  -0.34  -0.02    -0.33  -0.06   0.09
    11   8     0.08   0.01   0.00     0.00   0.00   0.13     0.00   0.00  -0.06
    12   1    -0.43  -0.04   0.21    -0.05  -0.21   0.19    -0.13   0.08   0.00
    13   1    -0.43  -0.04  -0.21     0.05   0.21   0.19     0.13  -0.08   0.00
                      7                      8                      9
                     A'                     A'                     A"
 Frequencies --    840.5608               853.7395               865.3982
 Red. masses --      1.5964                 2.1148                 1.4256
 Frc consts  --      0.6645                 0.9082                 0.6290
 IR Inten    --     82.3181                 1.3263                24.9256
 Raman Activ --      3.8037                 5.5334                 7.7633
 Depolar (P) --      0.7342                 0.6849                 0.7500
 Depolar (U) --      0.8467                 0.8130                 0.8571
  Atom  AN      X      Y      Z        X      Y      Z        X      Y      Z
     1   6    -0.04  -0.07   0.00    -0.10   0.01   0.01     0.03   0.05   0.01
     2   6     0.01   0.04  -0.07     0.02  -0.04   0.12    -0.08  -0.03   0.00
     3   6    -0.07   0.04  -0.06     0.01  -0.07  -0.05    -0.07  -0.05  -0.05
     4   6    -0.07   0.04   0.06     0.01  -0.07   0.05     0.07   0.05  -0.05
     5   6     0.01   0.04   0.07     0.02  -0.04  -0.12     0.08   0.03   0.00
     6   6    -0.04  -0.07   0.00    -0.10   0.01  -0.01    -0.03  -0.05   0.01
     7   1     0.37   0.15   0.10     0.53   0.19  -0.10     0.12   0.10   0.05
     8   1     0.44   0.16   0.14    -0.04   0.07   0.13     0.45   0.01   0.23
     9   1     0.44   0.16  -0.14    -0.04   0.07  -0.13    -0.45  -0.01   0.23
    10   1     0.37   0.15  -0.10     0.53   0.19   0.10    -0.12  -0.10   0.05
    11   8     0.02  -0.07   0.00     0.07   0.14   0.00     0.00   0.00   0.00
    12   1     0.23   0.08  -0.07    -0.26  -0.13   0.15    -0.42  -0.03   0.16
    13   1     0.23   0.08   0.07    -0.26  -0.13  -0.15     0.42   0.03   0.16
                     10                     11                     12
                     A'                     A'                     A"
 Frequencies --    921.2742               989.6408               998.8941
 Red. masses --      3.0513                 3.0408                 4.5452
 Frc consts  --      1.5258                 1.7546                 2.6720
 IR Inten    --      6.0478                11.3812                 3.2687
 Raman Activ --      7.1819                21.5370                 2.1334
 Depolar (P) --      0.1347                 0.2071                 0.7500
 Depolar (U) --      0.2374                 0.3431                 0.8571
  Atom  AN      X      Y      Z        X      Y      Z        X      Y      Z
     1   6    -0.02   0.20  -0.03     0.10  -0.06   0.04    -0.04   0.15  -0.15
     2   6    -0.02  -0.08  -0.10    -0.13  -0.05   0.11    -0.09  -0.03   0.29
     3   6     0.00  -0.13  -0.12    -0.10   0.02   0.06     0.07  -0.07  -0.02
     4   6     0.00  -0.13   0.12    -0.10   0.02  -0.06    -0.07   0.07  -0.02
     5   6    -0.02  -0.08   0.10    -0.13  -0.05  -0.11     0.09   0.03   0.29
     6   6    -0.02   0.20   0.03     0.10  -0.06  -0.04     0.04  -0.15  -0.15
     7   1    -0.30   0.04  -0.14    -0.23  -0.21   0.02     0.07   0.14  -0.23
     8   1     0.43  -0.06   0.09     0.37  -0.04   0.34    -0.17  -0.16   0.23
     9   1     0.43  -0.06  -0.09     0.37  -0.04  -0.34     0.17   0.16   0.23
    10   1    -0.30   0.04   0.14    -0.23  -0.21  -0.02    -0.07  -0.14  -0.23
    11   8     0.01   0.05   0.00     0.16   0.15   0.00     0.00   0.00  -0.13
    12   1     0.24  -0.19  -0.08     0.18   0.09  -0.15     0.18  -0.08  -0.35
    13   1     0.24  -0.19   0.08     0.18   0.09   0.15    -0.18   0.08  -0.35
                     13                     14                     15
                     A"                     A'                     A"
 Frequencies --   1046.9179              1057.2105              1081.9579
 Red. masses --      2.3662                 2.3534                 1.4235
 Frc consts  --      1.5280                 1.5498                 0.9818
 IR Inten    --      2.4576                15.1318                 2.2130
 Raman Activ --      4.6956                 1.8598                 2.5290
 Depolar (P) --      0.7500                 0.0739                 0.7500
 Depolar (U) --      0.8571                 0.1376                 0.8571
  Atom  AN      X      Y      Z        X      Y      Z        X      Y      Z
     1   6    -0.07   0.17   0.04    -0.06   0.03  -0.04     0.01  -0.05   0.00
     2   6     0.04  -0.02  -0.07     0.03  -0.06  -0.10    -0.08  -0.01  -0.04
     3   6     0.08  -0.09  -0.04    -0.02   0.04   0.18     0.06   0.03   0.06
     4   6    -0.08   0.09  -0.04    -0.02   0.04  -0.18    -0.06  -0.03   0.06
     5   6    -0.04   0.02  -0.07     0.03  -0.06   0.10     0.08   0.01  -0.04
     6   6     0.07  -0.17   0.04    -0.06   0.03   0.04    -0.01   0.05   0.00
     7   1    -0.23   0.28   0.34     0.13   0.14   0.00     0.09  -0.04  -0.04
     8   1     0.15  -0.09  -0.05     0.27  -0.41  -0.09     0.45   0.08   0.21
     9   1    -0.15   0.09  -0.05     0.27  -0.41   0.09    -0.45  -0.08   0.21
    10   1     0.23  -0.28   0.34     0.13   0.14   0.00    -0.09   0.04  -0.04
    11   8     0.00   0.00   0.07     0.08   0.02   0.00     0.00   0.00  -0.03
    12   1     0.28   0.28  -0.04    -0.36  -0.09  -0.13     0.43   0.01  -0.18
    13   1    -0.28  -0.28  -0.04    -0.36  -0.09   0.13    -0.43  -0.01  -0.18
                     16                     17                     18
                     A'                     A"                     A"
 Frequencies --   1089.8915              1121.8420              1210.0261
 Red. masses --      1.4974                 1.2994                 2.1865
 Frc consts  --      1.0480                 0.9635                 1.8862
 IR Inten    --      1.4308                 1.5048                78.0030
 Raman Activ --      3.3805                 5.1437                 0.0397
 Depolar (P) --      0.7029                 0.7500                 0.7500
 Depolar (U) --      0.8255                 0.8571                 0.8571
  Atom  AN      X      Y      Z        X      Y      Z        X      Y      Z
     1   6    -0.03   0.01  -0.02    -0.11  -0.04   0.00     0.03   0.00  -0.04
     2   6     0.08  -0.02   0.02     0.02   0.01  -0.01    -0.03   0.07   0.03
     3   6    -0.11  -0.01   0.00     0.00  -0.01  -0.01     0.06  -0.02  -0.11
     4   6    -0.11  -0.01   0.00     0.00   0.01  -0.01    -0.06   0.02  -0.11
     5   6     0.08  -0.02  -0.02    -0.02  -0.01  -0.01     0.03  -0.07   0.03
     6   6    -0.03   0.01   0.02     0.11   0.04   0.00    -0.03   0.00  -0.04
     7   1     0.07   0.03  -0.05     0.63   0.28   0.04     0.02  -0.12  -0.24
     8   1    -0.35  -0.20  -0.21    -0.06   0.04  -0.03    -0.06   0.57   0.14
     9   1    -0.35  -0.20   0.21     0.06  -0.04  -0.03     0.06  -0.57   0.14
    10   1     0.07   0.03   0.05    -0.63  -0.28   0.04    -0.02   0.12  -0.24
    11   8     0.05   0.03   0.00     0.00   0.00   0.02     0.00   0.00   0.20
    12   1     0.43   0.04  -0.27     0.01   0.04   0.02     0.03   0.17   0.02
    13   1     0.43   0.04   0.27    -0.01  -0.04   0.02    -0.03  -0.17   0.02
                     19                     20                     21
                     A'                     A'                     A"
 Frequencies --   1338.0311              1353.4764              1409.7299
 Red. masses --      1.0939                 1.1265                 1.5779
 Frc consts  --      1.1539                 1.2159                 1.8476
 IR Inten    --      0.5115                 5.9484                61.9711
 Raman Activ --     20.3596                19.1145                 3.9268
 Depolar (P) --      0.5980                 0.7243                 0.7500
 Depolar (U) --      0.7484                 0.8401                 0.8571
  Atom  AN      X      Y      Z        X      Y      Z        X      Y      Z
     1   6     0.00   0.01   0.05     0.01   0.01   0.02     0.00  -0.02   0.03
     2   6     0.01   0.00   0.02     0.01   0.02  -0.02    -0.01   0.00   0.01
     3   6     0.00  -0.03   0.00    -0.02  -0.03   0.05     0.04   0.05  -0.09
     4   6     0.00  -0.03   0.00    -0.02  -0.03  -0.05    -0.04  -0.05  -0.09
     5   6     0.01   0.00  -0.02     0.01   0.02   0.02     0.01   0.00   0.01
     6   6     0.00   0.01  -0.05     0.01   0.01  -0.02     0.00   0.02   0.03
     7   1    -0.13   0.29   0.62    -0.01  -0.01  -0.01     0.04  -0.05  -0.05
     8   1    -0.01  -0.07  -0.01    -0.10   0.48   0.05     0.12  -0.53  -0.07
     9   1    -0.01  -0.07   0.01    -0.10   0.48  -0.05    -0.12   0.53  -0.07
    10   1    -0.13   0.29  -0.62    -0.01  -0.01   0.01    -0.04   0.05  -0.05
    11   8     0.00   0.01   0.00     0.03  -0.01   0.00     0.00   0.00   0.13
    12   1     0.00  -0.06  -0.02    -0.10  -0.33  -0.36    -0.08  -0.26  -0.31
    13   1     0.00  -0.06   0.02    -0.10  -0.33   0.36     0.08   0.26  -0.31
                     22                     23                     24
                     A"                     A'                     A"
 Frequencies --   1498.6607              1567.7767              1591.3105
 Red. masses --      1.1797                 1.4373                 1.6286
 Frc consts  --      1.5611                 2.0815                 2.4298
 IR Inten    --      0.2361                 1.8854                 3.2664
 Raman Activ --      0.9230                 1.6165                10.6711
 Depolar (P) --      0.7500                 0.2332                 0.7500
 Depolar (U) --      0.8571                 0.3782                 0.8571
  Atom  AN      X      Y      Z        X      Y      Z        X      Y      Z
     1   6    -0.02   0.02   0.04    -0.01   0.02   0.00     0.05  -0.10  -0.08
     2   6    -0.02   0.04   0.02     0.03  -0.08  -0.04    -0.02   0.03   0.06
     3   6     0.01   0.04  -0.03    -0.03  -0.03   0.08     0.02   0.03  -0.05
     4   6    -0.01  -0.04  -0.03    -0.03  -0.03  -0.08    -0.02  -0.03  -0.05
     5   6     0.02  -0.04   0.02     0.03  -0.08   0.04     0.02  -0.03   0.06
     6   6     0.02  -0.02   0.04    -0.01   0.02   0.00    -0.05   0.10  -0.08
     7   1     0.07  -0.14  -0.30    -0.03   0.06   0.06    -0.11   0.20   0.55
     8   1     0.06  -0.29  -0.04    -0.08   0.41   0.04     0.01  -0.15   0.04
     9   1    -0.06   0.29  -0.04    -0.08   0.41  -0.04    -0.01   0.15   0.04
    10   1    -0.07   0.14  -0.30    -0.03   0.06  -0.06     0.11  -0.20   0.55
    11   8     0.00   0.00  -0.03     0.01   0.03   0.00     0.00   0.00   0.01
    12   1     0.12   0.36   0.39     0.11   0.40   0.35     0.08   0.21   0.21
    13   1    -0.12  -0.36   0.39     0.11   0.40  -0.35    -0.08  -0.21   0.21
                     25                     26                     27
                     A'                     A"                     A'
 Frequencies --   1836.4555              1857.7418              1889.8956
 Red. masses --      7.7772                 6.3621                 5.3767
 Frc consts  --     15.4538                12.9367                11.3146
 IR Inten    --     10.4299                21.0241                34.0426
 Raman Activ --    111.3700                18.9731                26.0518
 Depolar (P) --      0.1140                 0.7500                 0.2018
 Depolar (U) --      0.2047                 0.8571                 0.3358
  Atom  AN      X      Y      Z        X      Y      Z        X      Y      Z
     1   6    -0.04   0.08   0.49     0.01  -0.07  -0.01    -0.01  -0.02   0.16
     2   6     0.03  -0.17  -0.06    -0.04   0.37  -0.03    -0.01   0.28  -0.06
     3   6     0.02   0.14  -0.04    -0.01  -0.30   0.10    -0.03  -0.27   0.12
     4   6     0.02   0.14   0.04     0.01   0.30   0.10    -0.03  -0.27  -0.12
     5   6     0.03  -0.17   0.06     0.04  -0.37  -0.03    -0.01   0.28   0.06
     6   6    -0.04   0.08  -0.49    -0.01   0.07  -0.01    -0.01  -0.02  -0.16
     7   1     0.18  -0.31  -0.21     0.00  -0.10  -0.05     0.12  -0.20  -0.19
     8   1    -0.02  -0.07  -0.04     0.14  -0.32  -0.18     0.13  -0.22  -0.18
     9   1    -0.02  -0.07   0.04    -0.14   0.32  -0.18     0.13  -0.22   0.18
    10   1     0.18  -0.31   0.21     0.00   0.10  -0.05     0.12  -0.20   0.19
    11   8    -0.03  -0.03   0.00     0.00   0.00  -0.03     0.03   0.05   0.00
    12   1     0.00   0.03  -0.12    -0.16   0.03  -0.25     0.14   0.07   0.29
    13   1     0.00   0.03   0.12     0.16  -0.03  -0.25     0.14   0.07  -0.29
                     28                     29                     30
                     A"                     A'                     A"
 Frequencies --   3339.1808              3354.5280              3360.2502
 Red. masses --      1.0850                 1.0899                 1.0872
 Frc consts  --      7.1277                 7.2259                 7.2330
 IR Inten    --      0.7384                10.2499                12.6811
 Raman Activ --     47.0325               113.1036                84.9920
 Depolar (P) --      0.7500                 0.7484                 0.7500
 Depolar (U) --      0.8571                 0.8561                 0.8571
  Atom  AN      X      Y      Z        X      Y      Z        X      Y      Z
     1   6     0.02  -0.05   0.03     0.01  -0.03   0.02    -0.01   0.02  -0.01
     2   6     0.01   0.01  -0.02     0.02   0.01  -0.04     0.02   0.01  -0.05
     3   6     0.00   0.00   0.00    -0.01   0.01   0.01    -0.01   0.01   0.01
     4   6     0.00   0.00   0.00    -0.01   0.01  -0.01     0.01  -0.01   0.01
     5   6    -0.01  -0.01  -0.02     0.02   0.01   0.04    -0.02  -0.01  -0.05
     6   6    -0.02   0.05   0.03     0.01  -0.03  -0.02     0.01  -0.02  -0.01
     7   1    -0.22   0.54  -0.32    -0.13   0.32  -0.19     0.08  -0.19   0.11
     8   1    -0.09  -0.06   0.20    -0.21  -0.13   0.50    -0.23  -0.14   0.55
     9   1     0.09   0.06   0.20    -0.21  -0.13  -0.50     0.23   0.14   0.55
    10   1     0.22  -0.54  -0.32    -0.13   0.32   0.19    -0.08   0.19   0.11
    11   8     0.00   0.00   0.00     0.00   0.00   0.00     0.00   0.00   0.00
    12   1    -0.02   0.04  -0.03     0.06  -0.12   0.10    -0.10   0.19  -0.15
    13   1     0.02  -0.04  -0.03     0.06  -0.12  -0.10     0.10  -0.19  -0.15
                     31                     32                     33
                     A'                     A"                     A'
 Frequencies --   3369.4628              3394.8279              3400.0501
 Red. masses --      1.0946                 1.0984                 1.0998
 Frc consts  --      7.3216                 7.4585                 7.4912
 IR Inten    --     38.7633                51.3235                17.1609
 Raman Activ --    131.7351                71.1239               251.3505
 Depolar (P) --      0.0748                 0.7500                 0.0873
 Depolar (U) --      0.1392                 0.8571                 0.1606
  Atom  AN      X      Y      Z        X      Y      Z        X      Y      Z
     1   6     0.02  -0.04   0.03     0.00   0.00   0.00     0.00   0.01   0.00
     2   6    -0.01  -0.01   0.03    -0.01  -0.01   0.02     0.01   0.01  -0.02
     3   6     0.01  -0.01  -0.01    -0.02   0.05   0.03     0.02  -0.05  -0.03
     4   6     0.01  -0.01   0.01     0.02  -0.05   0.03     0.02  -0.05   0.03
     5   6    -0.01  -0.01  -0.03     0.01   0.01   0.02     0.01   0.01   0.02
     6   6     0.02  -0.04  -0.03     0.00   0.00   0.00     0.00   0.01   0.00
     7   1    -0.19   0.47  -0.28    -0.01   0.03  -0.01     0.02  -0.06   0.03
     8   1     0.13   0.08  -0.32     0.10   0.07  -0.24    -0.09  -0.06   0.22
     9   1     0.13   0.08   0.32    -0.10  -0.07  -0.24    -0.09  -0.06  -0.22
    10   1    -0.19   0.47   0.28     0.01  -0.03  -0.01     0.02  -0.06  -0.03
    11   8     0.00   0.00   0.00     0.00   0.00   0.00     0.00   0.00   0.00
    12   1    -0.07   0.14  -0.12    -0.23   0.47  -0.38    -0.24   0.48  -0.38
    13   1    -0.07   0.14   0.12     0.23  -0.47  -0.38    -0.24   0.48   0.38

 -------------------
 - Thermochemistry -
 -------------------
 Temperature   298.150 Kelvin.  Pressure   1.00000 Atm.
 Atom     1 has atomic number  6 and mass  12.00000
 Atom     2 has atomic number  6 and mass  12.00000
 Atom     3 has atomic number  6 and mass  12.00000
 Atom     4 has atomic number  6 and mass  12.00000
 Atom     5 has atomic number  6 and mass  12.00000
 Atom     6 has atomic number  6 and mass  12.00000
 Atom     7 has atomic number  1 and mass   1.00783
 Atom     8 has atomic number  1 and mass   1.00783
 Atom     9 has atomic number  1 and mass   1.00783
 Atom    10 has atomic number  1 and mass   1.00783
 Atom    11 has atomic number  8 and mass  15.99491
 Atom    12 has atomic number  1 and mass   1.00783
 Atom    13 has atomic number  1 and mass   1.00783
 Molecular mass:    94.04186 amu.
 Principal axes and moments of inertia in atomic units:
                           1         2         3
     Eigenvalues --   449.60978 468.75977 865.62152
           X           -0.08380   0.00000   0.99648
           Y            0.99648   0.00000   0.08380
           Z            0.00000   1.00000   0.00000
 This molecule is an asymmetric top.
 Rotational symmetry number  1.
 Warning -- assumption of classical behavior for rotation
           may cause significant error
 Rotational temperatures (Kelvin)      0.19264     0.18477     0.10006
 Rotational constants (GHZ):           4.01402     3.85003     2.08491
 Zero-point vibrational energy     294093.1 (Joules/Mol)
                                   70.28995 (Kcal/Mol)
 Warning -- explicit consideration of   5 degrees of freedom as
           vibrations may cause significant error
 Vibrational temperatures:    272.11   434.35   576.57   664.70   699.45
          (Kelvin)            992.64  1209.38  1228.34  1245.11  1325.51
                             1423.87  1437.18  1506.28  1521.09  1556.69
                             1568.11  1614.08  1740.96  1925.13  1947.35
                             2028.28  2156.24  2255.68  2289.54  2642.25
                             2672.87  2719.13  4804.33  4826.41  4834.64
                             4847.90  4884.39  4891.91
 
 Zero-point correction=                           0.112014 (Hartree/Particle)
 Thermal correction to Energy=                    0.117267
 Thermal correction to Enthalpy=                  0.118212
 Thermal correction to Gibbs Free Energy=         0.083092
 Sum of electronic and zero-point Energies=           -305.377799
 Sum of electronic and thermal Energies=              -305.372545
 Sum of electronic and thermal Enthalpies=            -305.371601
 Sum of electronic and thermal Free Energies=         -305.406721
 
                     E (Thermal)             CV                S
                      KCal/Mol        Cal/Mol-Kelvin    Cal/Mol-Kelvin
 Total                   73.586             19.657             73.916
 Electronic               0.000              0.000              0.000
 Translational            0.889              2.981             39.535
 Rotational               0.889              2.981             26.703
 Vibrational             71.809             13.696              7.678
 Vibration     1          0.633              1.855              2.236
 Vibration     2          0.694              1.670              1.406
 Vibration     3          0.767              1.469              0.960
 Vibration     4          0.820              1.334              0.760
 Vibration     5          0.842              1.281              0.694
                       Q            Log10(Q)             Ln(Q)
 Total Bot       0.603428D-38        -38.219374        -88.003362
 Total V=0       0.201119D+14         13.303453         30.632333
 Vib (Bot)       0.110099D-50        -50.958215       -117.335626
 Vib (Bot)    1  0.105857D+01          0.024720          0.056920
 Vib (Bot)    2  0.629291D+00         -0.201149         -0.463162
 Vib (Bot)    3  0.444530D+00         -0.352099         -0.810738
 Vib (Bot)    4  0.367559D+00         -0.434673         -1.000873
 Vib (Bot)    5  0.342212D+00         -0.465705         -1.072324
 Vib (V=0)       0.366955D+01          0.564613          1.300069
 Vib (V=0)    1  0.167071D+01          0.222902          0.513251
 Vib (V=0)    2  0.130375D+01          0.115193          0.265241
 Vib (V=0)    3  0.116903D+01          0.067827          0.156178
 Vib (V=0)    4  0.112056D+01          0.049437          0.113832
 Vib (V=0)    5  0.110590D+01          0.043714          0.100655
 Electronic      0.100000D+01          0.000000          0.000000
 Translational   0.358457D+08          7.554437         17.394734
 Rotational      0.152899D+06          5.184403         11.937530
 ***** Axes restored to original set *****
 -------------------------------------------------------------------
 Center     Atomic                   Forces (Hartrees/Bohr)
 Number     Number              X              Y              Z
 -------------------------------------------------------------------
      1        6          -0.000016570    0.000053725   -0.000051295
      2        6          -0.000017517   -0.000031620    0.000040949
      3        6           0.000023405   -0.000007833   -0.000048628
      4        6           0.000023405    0.000007833   -0.000048628
      5        6          -0.000017517    0.000031620    0.000040949
      6        6          -0.000016570   -0.000053725   -0.000051295
      7        1           0.000006175   -0.000004732    0.000018672
      8        1           0.000000335    0.000010584    0.000011278
      9        1           0.000000335   -0.000010584    0.000011278
     10        1           0.000006175    0.000004732    0.000018672
     11        8           0.000012087    0.000000000    0.000059224
     12        1          -0.000001872    0.000000461   -0.000000589
     13        1          -0.000001872   -0.000000461   -0.000000589
 -------------------------------------------------------------------
 Cartesian Forces:  Max     0.000059224 RMS     0.000027013

 GradGradGradGradGradGradGradGradGradGradGradGradGradGradGradGradGradGrad
 Berny optimization.
 Search for a local minimum.
 Step number   1 out of a maximum of    2
 All quantities printed in internal units (Hartrees-Bohrs-Radians)
 Second derivative matrix not updated -- analytic derivatives used.
 ITU=  0
     Eigenvalues ---    0.00582   0.00920   0.01639   0.02747   0.03260
     Eigenvalues ---    0.05308   0.05765   0.06469   0.07162   0.07789
     Eigenvalues ---    0.09030   0.09380   0.10158   0.14207   0.16602
     Eigenvalues ---    0.18712   0.21132   0.22128   0.23384   0.29931
     Eigenvalues ---    0.30696   0.38685   0.49895   0.65834   0.76282
     Eigenvalues ---    0.94994   0.95616   1.02753   1.05945   1.09920
     Eigenvalues ---    1.60572   1.67636   1.71662
 Angle between quadratic step and forces=  59.80 degrees.
 ClnCor:  largest displacement from symmetrization is 6.39D-11 for atom    13.
 Linear search not attempted -- first point.
 ClnCor:  largest displacement from symmetrization is 1.81D-15 for atom    12.
 B after Tr=    -0.000004    0.000000   -0.000041
         Rot=    1.000000    0.000000    0.000007    0.000000 Ang=   0.00 deg.
 Variable       Old X    -DE/DX   Delta X   Delta X   Delta X     New X
                                 (Linear)    (Quad)   (Total)
    X1       -2.71671  -0.00002   0.00000  -0.00016  -0.00017  -2.71687
    Y1        1.25671   0.00005   0.00000   0.00004   0.00004   1.25674
    Z1        0.26275  -0.00005   0.00000  -0.00033  -0.00041   0.26234
    X2       -0.55505  -0.00002   0.00000   0.00000   0.00000  -0.55505
    Y2        2.83727  -0.00003   0.00000  -0.00004  -0.00004   2.83723
    Z2       -0.45561   0.00004   0.00000   0.00024   0.00019  -0.45542
    X3        1.84063   0.00002   0.00000   0.00007   0.00007   1.84070
    Y3        2.19021  -0.00001   0.00000  -0.00011  -0.00011   2.19010
    Z3       -0.20020  -0.00005   0.00000  -0.00017  -0.00018  -0.20038
    X4        1.84063   0.00002   0.00000   0.00007   0.00007   1.84070
    Y4       -2.19021   0.00001   0.00000   0.00011   0.00011  -2.19010
    Z4       -0.20020  -0.00005   0.00000  -0.00017  -0.00018  -0.20038
    X5       -0.55505  -0.00002   0.00000   0.00000   0.00000  -0.55505
    Y5       -2.83727   0.00003   0.00000   0.00004   0.00004  -2.83723
    Z5       -0.45561   0.00004   0.00000   0.00024   0.00019  -0.45542
    X6       -2.71671  -0.00002   0.00000  -0.00016  -0.00017  -2.71687
    Y6       -1.25671  -0.00005   0.00000  -0.00004  -0.00004  -1.25674
    Z6        0.26275  -0.00005   0.00000  -0.00033  -0.00041   0.26234
    X7       -4.43383   0.00001   0.00000  -0.00007  -0.00008  -4.43391
    Y7        2.23628   0.00000   0.00000   0.00000   0.00000   2.23628
    Z7        0.74334   0.00002   0.00000   0.00002  -0.00009   0.74325
    X8       -0.94386   0.00000   0.00000   0.00013   0.00014  -0.94372
    Y8        4.65935   0.00001   0.00000   0.00023   0.00023   4.65958
    Z8       -1.26984   0.00001   0.00000   0.00073   0.00068  -1.26916
    X9       -0.94386   0.00000   0.00000   0.00013   0.00014  -0.94372
    Y9       -4.65935  -0.00001   0.00000  -0.00023  -0.00023  -4.65958
    Z9       -1.26984   0.00001   0.00000   0.00073   0.00068  -1.26916
   X10       -4.43383   0.00001   0.00000  -0.00007  -0.00008  -4.43391
   Y10       -2.23628   0.00000   0.00000   0.00000   0.00000  -2.23628
   Z10        0.74334   0.00002   0.00000   0.00002  -0.00009   0.74325
   X11        2.64834   0.00001   0.00000   0.00013   0.00012   2.64845
   Y11        0.00000   0.00000   0.00000   0.00000   0.00000   0.00000
   Z11        0.91705   0.00006   0.00000   0.00009   0.00008   0.91713
   X12        3.37103   0.00000   0.00000  -0.00003  -0.00002   3.37100
   Y12       -3.38985   0.00000   0.00000   0.00003   0.00003  -3.38981
   Z12       -0.78329   0.00000   0.00000  -0.00024  -0.00023  -0.78352
   X13        3.37103   0.00000   0.00000  -0.00003  -0.00002   3.37100
   Y13        3.38985   0.00000   0.00000  -0.00003  -0.00003   3.38981
   Z13       -0.78329   0.00000   0.00000  -0.00024  -0.00023  -0.78352
         Item               Value     Threshold  Converged?
 Maximum Force            0.000059     0.000450     YES
 RMS     Force            0.000027     0.000300     YES
 Maximum Displacement     0.000677     0.001800     YES
 RMS     Displacement     0.000215     0.001200     YES
 Predicted change in Energy=-5.767875D-08
 Optimization completed.
    -- Stationary point found.
 GradGradGradGradGradGradGradGradGradGradGradGradGradGradGradGradGradGrad

 1\1\GINC-QC0019\Freq\RHF\6-31G(d)\C6H6O1\ELIOT\05-Oct-2018\0\\# freq h
 f/6-31g*\\oxepin-hf.log\\0,1\C,-1.43762,0.66502,0.13904\C,-0.29372,1.5
 0142,-0.2411\C,0.97402,1.15901,-0.10594\C,0.97402,-1.15901,-0.10594\C,
 -0.29372,-1.50142,-0.2411\C,-1.43762,-0.66502,0.13904\H,-2.34628,1.183
 39,0.39336\H,-0.49947,2.46562,-0.67197\H,-0.49947,-2.46562,-0.67197\H,
 -2.34628,-1.18339,0.39336\O,1.40144,0.,0.48528\H,1.78387,-1.79383,-0.4
 145\H,1.78387,1.79383,-0.4145\\Version=ES64L-G09RevE.01\State=1-A'\HF=
 -305.4898127\RMSD=9.949e-09\RMSF=2.701e-05\ZeroPoint=0.1120142\Thermal
 =0.1172675\Dipole=-0.2190486,0.,-0.4839994\DipoleDeriv=0.1572797,0.094
 9325,-0.0941106,-0.0368915,-0.0127778,0.0495854,-0.1314871,0.0381417,-
 0.1123465,-0.2381031,0.0234683,0.0118892,0.048264,0.0618602,-0.139202,
 0.0343653,-0.1785936,-0.1364937,0.4135251,-0.1541567,0.01315,-0.230720
 3,0.6590041,-0.2985214,0.130881,-0.3345941,0.1239723,0.4135251,0.15415
 67,0.01315,0.2307203,0.6590041,0.2985214,0.130881,0.3345941,0.1239723,
 -0.2381031,-0.0234683,0.0118892,-0.048264,0.0618602,0.139202,0.0343653
 ,0.1785936,-0.1364937,0.1572797,-0.0949325,-0.0941106,0.0368915,-0.012
 7778,-0.0495854,-0.1314871,-0.0381417,-0.1123465,-0.0909708,0.0677764,
 0.0590248,0.0740512,-0.0049834,-0.0160875,0.0781279,-0.0131462,0.11579
 26,0.0535455,0.0080048,-0.0011334,0.0167207,-0.0830231,0.0822414,0.004
 353,0.1140169,0.0974179,0.0535455,-0.0080048,-0.0011334,-0.0167207,-0.
 0830231,-0.0822414,0.004353,-0.1140169,0.0974179,-0.0909708,-0.0677764
 ,0.0590248,-0.0740512,-0.0049834,0.0160875,0.0781279,0.0131462,0.11579
 26,-0.5135228,0.,-0.0498653,0.0000002,-1.1936028,0.0000002,-0.3637285,
 0.,-0.4036617,-0.0385149,0.0804691,0.0361128,0.0661505,-0.0232784,-0.0
 507609,0.0656241,-0.1005828,0.1134883,-0.0385149,-0.0804691,0.0361128,
 -0.0661505,-0.0232784,0.0507609,0.0656241,0.1005828,0.1134883\Polar=72
 .1660442,0.,68.918933,-2.4377999,0.,27.1700181\PolarDeriv=4.5034373,3.
 3473176,4.0612635,-1.6566794,2.1319203,0.1878823,2.9663633,3.2540391,1
 9.3959113,-0.1943277,-0.5573314,0.3822529,-1.7555097,0.2177179,-1.3820
 272,-0.2416682,6.5116189,0.3208619,-12.9217972,-5.4503043,-5.0620393,0
 .3753636,-0.2044368,-0.3729246,0.9262109,-3.5264567,-5.3320818,-1.7511
 835,2.2071965,-0.8234312,-0.9403509,-1.0507624,4.0261893,-4.5024461,-0
 .7504219,-0.7007414,9.7664889,0.706861,0.7053169,0.9172005,0.3463205,0
 .282721,-4.7927509,0.0246226,-0.2511195,3.045697,1.151641,0.2826725,2.
 7530728,2.6234685,-1.0755645,5.2327969,0.3104457,1.2059471,9.7664889,-
 0.706861,0.7053169,0.9172005,-0.3463205,0.282721,4.7927509,0.0246226,0
 .2511195,-3.045697,1.151641,-0.2826725,2.7530728,-2.6234685,-1.0755645
 ,5.2327969,-0.3104457,1.2059471,-12.9217972,5.4503043,-5.0620393,0.375
 3636,0.2044368,-0.3729246,-0.9262109,-3.5264567,5.3320818,1.7511835,2.
 2071965,0.8234312,-0.9403509,1.0507624,4.0261893,-4.5024461,0.7504219,
 -0.7007414,4.5034373,-3.3473176,4.0612635,-1.6566794,-2.1319203,0.1878
 823,-2.9663633,3.2540391,-19.3959113,0.1943277,-0.5573314,-0.3822529,-
 1.7555097,-0.2177179,-1.3820272,-0.2416682,-6.5116189,0.3208619,-7.889
 5846,3.5047018,-1.89797,1.515008,-0.956264,-0.5505462,2.9673149,-2.674
 0177,3.3104532,-0.7658547,0.6557563,0.3297484,1.3091196,-1.6726078,0.2
 173388,-1.7895063,0.3261311,1.0962884,-1.3017834,1.4787873,-0.9515687,
 -0.5366151,0.4431441,-0.1529265,0.6803157,-1.0130927,9.3214091,0.67026
 05,-2.5876208,0.9819934,0.0902434,1.4862041,-2.366222,0.0231523,2.5437
 969,-1.726382,-1.3017834,-1.4787873,-0.9515687,-0.5366151,-0.4431441,-
 0.1529265,-0.6803157,-1.0130927,-9.3214091,-0.6702605,-2.5876208,-0.98
 19934,0.0902434,-1.4862041,-2.366222,0.0231523,-2.5437969,-1.726382,-7
 .8895846,-3.5047018,-1.89797,1.515008,0.956264,-0.5505462,-2.9673149,-
 2.6740177,-3.3104532,0.7658547,0.6557563,-0.3297484,1.3091196,1.672607
 8,0.2173388,-1.7895063,-0.3261311,1.0962884,2.544145,0.0000005,0.86926
 41,1.0391604,0.,0.1360703,0.0000049,0.913183,0.0000001,-0.0000019,0.23
 4699,-0.0000004,0.547483,0.0000006,4.0424926,0.3502406,-0.0000001,1.92
 07423,6.5711692,-3.6188775,2.7103659,-1.1338586,0.7781622,0.5377586,-2
 .9891785,3.4783144,-4.0422394,0.988835,-0.9869908,-0.3606929,-1.730315
 4,1.6384158,-1.4409605,1.1025507,-1.4248831,-1.1563455,6.5711692,3.618
 8775,2.7103659,-1.1338586,-0.7781622,0.5377586,2.9891785,3.4783144,4.0
 422394,-0.988835,-0.9869908,0.3606929,-1.7303154,-1.6384158,-1.4409605
 ,1.1025507,1.4248831,-1.1563455\HyperPolar=-8.3195911,0.,-6.4357531,0.
 ,3.2055012,0.,-44.7404538,-2.1026371,0.,-3.3042334\PG=CS [SG(O1),X(C6H
 6)]\NImag=0\\0.66140068,-0.04447553,0.95022934,-0.14215970,-0.00664359
 ,0.20176498,-0.22033615,-0.05588075,0.03626370,0.94319587,-0.07802963,
 -0.17233312,0.03857514,-0.09767354,0.66237320,0.04751856,0.03323990,-0
 .09381435,0.02900448,-0.21499642,0.24303725,-0.04289619,-0.00760457,0.
 00566764,-0.60492446,0.11014220,-0.04462227,1.02162309,-0.00688593,0.0
 2177869,-0.00835028,0.09973514,-0.14567664,0.03612853,-0.01693162,0.59
 115405,0.01389410,0.00798285,0.01138620,-0.05423140,0.03076458,-0.0783
 5754,0.01991470,-0.18720259,0.25425450,0.00149304,-0.01007676,-0.00375
 960,-0.00303220,0.00975816,-0.00617142,0.00629698,-0.00613712,0.023626
 03,1.02162309,0.00919852,-0.00924901,-0.00694442,-0.00367944,0.0126220
 8,-0.00727195,0.00613712,-0.08122846,0.00934376,0.01693162,0.59115405,
 0.01092340,0.00829834,-0.00308780,-0.01253427,0.00393698,0.00099757,0.
 02362603,-0.00934376,0.00987064,0.01991470,0.18720259,0.25425450,0.011
 52910,0.02615224,0.00534327,-0.00797944,-0.00451789,0.00035127,-0.0030
 3220,0.00367944,-0.01253427,-0.60492446,-0.09973514,-0.05423140,0.9431
 9587,0.02940390,-0.02443013,-0.01133402,0.00451789,-0.00046850,0.00014
 195,-0.00975816,0.01262208,-0.00393698,-0.11014220,-0.14567664,-0.0307
 6458,0.09767354,0.66237320,-0.00131214,-0.00492722,0.00747565,0.000351
 27,-0.00014195,-0.00619609,-0.00617142,0.00727195,0.00099757,-0.044622
 27,-0.03612853,-0.07835754,0.02900448,0.21499642,0.24303725,-0.1361482
 0,-0.01450732,0.01720529,0.01152910,-0.02940390,-0.00131214,0.00149304
 ,-0.00919852,0.01092340,-0.04289619,0.00688593,0.01389410,-0.22033615,
 0.07802963,0.04751856,0.66140068,0.01450732,-0.60221413,0.00112877,-0.
 02615224,-0.02443013,0.00492722,0.01007676,-0.00924901,-0.00829834,0.0
 0760457,0.02177869,-0.00798285,0.05588075,-0.17233312,-0.03323990,0.04
 447553,0.95022934,0.01720529,-0.00112877,-0.07144945,0.00534327,0.0113
 3402,0.00747565,-0.00375960,0.00694442,-0.00308780,0.00566764,0.008350
 28,0.01138620,0.03626370,-0.03857514,-0.09381435,-0.14215970,0.0066435
 9,0.20176498,-0.28555785,0.12577656,0.06808492,-0.02093530,0.01494937,
 0.00498915,-0.00104970,-0.00550142,0.00308992,-0.00009477,-0.00162708,
 -0.00104817,0.00312517,0.00006462,0.00325254,0.00399220,-0.00312345,0.
 00096055,0.30008353,0.12150598,-0.13881202,-0.03126984,-0.02037000,0.0
 1412253,0.00496864,-0.00237896,-0.00404628,0.00180314,-0.00070922,-0.0
 0145030,-0.00084987,-0.00220283,-0.00491508,0.00098650,0.03439018,-0.0
 1437632,-0.00972364,-0.13210657,0.14629904,0.06883162,-0.02928767,-0.0
 6596770,0.00388635,-0.00526302,0.00338114,0.00225433,0.00013593,-0.000
 82385,0.00057717,-0.00088821,-0.00248261,0.00424864,0.00130359,0.01275
 737,0.00004484,-0.00266876,0.00771135,-0.07583191,0.03565399,0.0514497
 9,0.01104943,-0.02752583,0.01100840,-0.08138174,0.05220771,-0.01975008
 ,0.00106415,0.03233297,-0.01514074,-0.00122276,-0.00284633,-0.00152002
 ,0.00037630,0.00071670,0.00069405,-0.00529707,-0.00159905,0.00167879,0
 .00087207,0.00107109,-0.00047025,0.08090454,0.00485697,-0.01452838,0.0
 0602561,0.05813138,-0.31098816,0.12047024,-0.00301401,-0.00664140,0.00
 365876,-0.00076705,0.00112394,0.00053719,0.00064305,0.00005183,0.00028
 662,-0.00343364,0.00113963,0.00197115,-0.00085773,0.00074947,-0.000486
 90,-0.05804719,0.32708293,-0.00602493,0.00421138,0.00134395,-0.0194788
 2,0.12085209,-0.09599601,-0.00055410,0.00230119,0.00035726,-0.00122992
 ,0.00214094,0.00129893,0.00078720,-0.00072107,-0.00037608,0.00181328,0
 .00239236,-0.00003471,-0.00026268,-0.00029721,-0.00007017,0.02487062,-
 0.13240208,0.08869341,-0.00529707,0.00159905,0.00167879,0.00037630,-0.
 00071670,0.00069405,-0.00122276,0.00284633,-0.00152002,0.00106415,-0.0
 3233297,-0.01514074,-0.08138174,-0.05220771,-0.01975008,0.01104943,0.0
 2752583,0.01100840,-0.00038352,0.00129365,-0.00120984,0.00019555,-0.00
 001932,-0.00008597,0.08090454,0.00343364,0.00113963,-0.00197115,-0.000
 64305,0.00005183,-0.00028662,0.00076705,0.00112394,-0.00053719,0.00301
 401,-0.00664140,-0.00365876,-0.05813138,-0.31098816,-0.12047024,-0.004
 85697,-0.01452838,-0.00602561,0.00019980,-0.00082339,0.00063962,0.0000
 1932,-0.00006283,0.00005968,0.05804719,0.32708293,0.00181328,-0.002392
 36,-0.00003471,0.00078720,0.00072107,-0.00037608,-0.00122992,-0.002140
 94,0.00129893,-0.00055410,-0.00230119,0.00035726,-0.01947882,-0.120852
 09,-0.09599601,-0.00602493,-0.00421138,0.00134395,-0.00001479,-0.00035
 878,0.00034838,-0.00008597,-0.00005968,-0.00001606,0.02487062,0.132402
 08,0.08869341,0.00399220,0.00312345,0.00096055,0.00312517,-0.00006462,
 0.00325254,-0.00009477,0.00162708,-0.00104817,-0.00104970,0.00550142,0
 .00308992,-0.02093530,-0.01494937,0.00498915,-0.28555785,-0.12577656,0
 .06808492,0.00089161,-0.00019970,-0.00281351,-0.00038352,-0.00019980,-
 0.00001479,0.00087207,0.00085773,-0.00026268,0.30008353,-0.03439018,-0
 .01437632,0.00972364,0.00220283,-0.00491508,-0.00098650,0.00070922,-0.
 00145030,0.00084987,0.00237896,-0.00404628,-0.00180314,0.02037000,0.01
 412253,-0.00496864,-0.12150598,-0.13881202,0.03126984,0.00019970,0.000
 96518,0.00032569,-0.00129365,-0.00082339,0.00035878,-0.00107109,0.0007
 4947,0.00029721,0.13210657,0.14629904,0.00004484,0.00266876,0.00771135
 ,0.00424864,-0.00130359,0.01275737,0.00057717,0.00088821,-0.00248261,0
 .00225433,-0.00013593,-0.00082385,0.00388635,0.00526302,0.00338114,0.0
 6883162,0.02928767,-0.06596770,-0.00281351,-0.00032569,-0.00849971,-0.
 00120984,-0.00063962,0.00034838,-0.00047025,0.00048690,-0.00007017,-0.
 07583191,-0.03565399,0.05144979,0.00408206,-0.00038036,0.00088355,-0.0
 0223838,0.04612798,-0.02490877,-0.11814439,0.04582123,-0.05353419,-0.1
 1814440,-0.04582124,-0.05353419,-0.00223838,-0.04612796,-0.02490877,0.
 00408207,0.00038035,0.00088356,0.00017195,0.00042796,0.00019211,-0.006
 72045,0.00206462,0.00014330,-0.00672045,-0.00206463,0.00014329,0.00017
 195,-0.00042796,0.00019211,0.21552253,-0.01805695,0.00059798,0.0053982
 4,0.02758760,-0.03961060,0.02285629,0.05517741,-0.22322682,0.09969519,
 -0.05517741,-0.22322682,-0.09969517,-0.02758761,-0.03961058,-0.0228563
 0,0.01805694,0.00059798,-0.00539824,0.00173306,0.00208064,0.00042861,0
 .00497499,0.00293511,0.00388297,-0.00497498,0.00293511,-0.00388296,-0.
 00173306,0.00208064,-0.00042861,-0.00000001,0.58986099,-0.01274855,-0.
 02193470,-0.00389243,0.01217664,0.01969630,-0.00530731,-0.06569658,0.0
 9932735,-0.11346143,-0.06569658,-0.09932735,-0.11346143,0.01217664,-0.
 01969630,-0.00530731,-0.01274854,0.02193469,-0.00389243,0.00094111,0.0
 0047963,0.00344482,-0.00000731,0.00339573,0.00949918,-0.00000731,-0.00
 339573,0.00949918,0.00094111,-0.00047963,0.00344482,0.14054731,0.,0.21
 317390,-0.00036620,-0.00017323,0.00013189,0.00050192,-0.00055815,0.000
 49619,0.00003182,0.00002854,-0.00204202,-0.25914461,0.14141612,0.06860
 268,-0.01790069,0.02222100,0.01045843,-0.00294487,-0.00397302,-0.00130
 869,0.00007694,0.00022627,0.00011463,0.00020286,0.00012258,0.00012820,
 0.00034063,-0.00052014,-0.00009140,-0.00119232,0.00094784,0.00017581,0
 .01508794,-0.01415145,-0.00493897,0.26522535,-0.00210056,-0.00071432,0
 .00053764,0.00182799,-0.00154461,0.00098629,-0.00131255,0.00457190,-0.
 00690722,0.14200989,-0.15973174,-0.05278419,-0.01039620,0.01079719,0.0
 0017757,-0.00103243,0.00291179,-0.00512426,0.00028820,0.00027292,0.000
 55756,0.00037283,0.00011217,0.00031414,0.00038357,-0.00015091,0.003093
 17,-0.00000495,-0.00006641,0.00045042,0.01546840,-0.03770681,-0.014094
 50,-0.14554527,0.18197013,0.00244658,0.00193117,-0.00149659,-0.0025080
 4,-0.00168180,0.00128836,0.00254315,-0.00091723,-0.00298244,0.06745087
 ,-0.05495722,-0.07696943,-0.00330902,0.00249340,0.01111004,-0.00043237
 ,-0.00798190,0.01006089,-0.00023922,-0.00012082,-0.00119554,0.00017260
 ,0.00009197,0.00054742,-0.00024023,0.00284902,-0.00559549,-0.00110793,
 0.00094603,-0.00005327,0.00695035,-0.01525305,0.00313023,-0.07177298,0
 .07269691,0.06212264,-0.00294487,0.00397302,-0.00130869,-0.01790069,-0
 .02222100,0.01045843,-0.25914461,-0.14141612,0.06860268,0.00003182,-0.
 00002854,-0.00204202,0.00050192,0.00055815,0.00049619,-0.00036620,0.00
 017323,0.00013189,-0.00119232,-0.00094784,0.00017581,0.00034063,0.0005
 2014,-0.00009140,0.00020286,-0.00012258,0.00012820,0.00007694,-0.00022
 627,0.00011463,0.01508794,0.01415146,-0.00493897,0.00008123,0.00004109
 ,0.00004622,0.26522535,0.00103243,0.00291179,0.00512426,0.01039620,0.0
 1079719,-0.00017757,-0.14200989,-0.15973174,0.05278419,0.00131255,0.00
 457190,0.00690722,-0.00182799,-0.00154461,-0.00098629,0.00210056,-0.00
 071432,-0.00053764,0.00000495,-0.00006641,-0.00045042,-0.00038357,-0.0
 0015091,-0.00309317,-0.00037283,0.00011217,-0.00031414,-0.00028820,0.0
 0027292,-0.00055756,-0.01546840,-0.03770682,0.01409450,-0.00004109,-0.
 00072130,-0.00009649,0.14554527,0.18197013,-0.00043237,0.00798190,0.01
 006089,-0.00330902,-0.00249340,0.01111004,0.06745087,0.05495722,-0.076
 96943,0.00254315,0.00091723,-0.00298244,-0.00250804,0.00168180,0.00128
 836,0.00244658,-0.00193117,-0.00149659,-0.00110793,-0.00094603,-0.0000
 5327,-0.00024023,-0.00284902,-0.00559549,0.00017260,-0.00009197,0.0005
 4742,-0.00023922,0.00012082,-0.00119554,0.00695034,0.01525303,0.003130
 22,0.00004622,0.00009649,0.00003317,-0.07177298,-0.07269691,0.06212264
 \\0.00001657,-0.00005373,0.00005130,0.00001752,0.00003162,-0.00004095,
 -0.00002340,0.00000783,0.00004863,-0.00002340,-0.00000783,0.00004863,0
 .00001752,-0.00003162,-0.00004095,0.00001657,0.00005373,0.00005130,-0.
 00000618,0.00000473,-0.00001867,-0.00000033,-0.00001058,-0.00001128,-0
 .00000033,0.00001058,-0.00001128,-0.00000618,-0.00000473,-0.00001867,-
 0.00001209,0.,-0.00005922,0.00000187,-0.00000046,0.00000059,0.00000187
 ,0.00000046,0.00000059\\\@


 When I told the people of Northern Ireland that I was
 an atheist, a woman in the audience stood up and said,
 "Yes, but is it the God of the Catholics or the God
 of the Protestants in whom you don't believe?"
                               -- Quentin Crisp
 Job cpu time:       0 days  0 hours  0 minutes 44.7 seconds.
 File lengths (MBytes):  RWF=     18 Int=      0 D2E=      0 Chk=      2 Scr=      1
 Normal termination of Gaussian 09 at Fri Oct  5 10:07:50 2018.
