 Entering Gaussian System, Link 0=/home/eliot/software/g09E01/g09
 Initial command:
 /home/eliot/software/g09E01/l1.exe "/tmp/Gau-8675.inp" -scrdir="/tmp/"
 Entering Link 1 = /home/eliot/software/g09E01/l1.exe PID=      8677.
  
 Copyright (c) 1988,1990,1992,1993,1995,1998,2003,2009,2015,
            Gaussian, Inc.  All Rights Reserved.
  
 This is part of the Gaussian(R) 09 program.  It is based on
 the Gaussian(R) 03 system (copyright 2003, Gaussian, Inc.),
 the Gaussian(R) 98 system (copyright 1998, Gaussian, Inc.),
 the Gaussian(R) 94 system (copyright 1995, Gaussian, Inc.),
 the Gaussian 92(TM) system (copyright 1992, Gaussian, Inc.),
 the Gaussian 90(TM) system (copyright 1990, Gaussian, Inc.),
 the Gaussian 88(TM) system (copyright 1988, Gaussian, Inc.),
 the Gaussian 86(TM) system (copyright 1986, Carnegie Mellon
 University), and the Gaussian 82(TM) system (copyright 1983,
 Carnegie Mellon University). Gaussian is a federally registered
 trademark of Gaussian, Inc.
  
 This software contains proprietary and confidential information,
 including trade secrets, belonging to Gaussian, Inc.
  
 This software is provided under written license and may be
 used, copied, transmitted, or stored only in accord with that
 written license.
  
 The following legend is applicable only to US Government
 contracts under FAR:
  
                    RESTRICTED RIGHTS LEGEND
  
 Use, reproduction and disclosure by the US Government is
 subject to restrictions as set forth in subparagraphs (a)
 and (c) of the Commercial Computer Software - Restricted
 Rights clause in FAR 52.227-19.
  
 Gaussian, Inc.
 340 Quinnipiac St., Bldg. 40, Wallingford CT 06492
  
  
 ---------------------------------------------------------------
 Warning -- This program may not be used in any manner that
 competes with the business of Gaussian, Inc. or will provide
 assistance to any competitor of Gaussian, Inc.  The licensee
 of this program is prohibited from giving any competitor of
 Gaussian, Inc. access to this program.  By using this program,
 the user acknowledges that Gaussian, Inc. is engaged in the
 business of creating and licensing software in the field of
 computational chemistry and represents and warrants to the
 licensee that it is not a competitor of Gaussian, Inc. and that
 it will not use this program in any manner prohibited above.
 ---------------------------------------------------------------
  

 Cite this work as:
 Gaussian 09, Revision E.01,
 M. J. Frisch, G. W. Trucks, H. B. Schlegel, G. E. Scuseria, 
 M. A. Robb, J. R. Cheeseman, G. Scalmani, V. Barone, B. Mennucci, 
 G. A. Petersson, H. Nakatsuji, M. Caricato, X. Li, H. P. Hratchian, 
 A. F. Izmaylov, J. Bloino, G. Zheng, J. L. Sonnenberg, M. Hada, 
 M. Ehara, K. Toyota, R. Fukuda, J. Hasegawa, M. Ishida, T. Nakajima, 
 Y. Honda, O. Kitao, H. Nakai, T. Vreven, J. A. Montgomery, Jr., 
 J. E. Peralta, F. Ogliaro, M. Bearpark, J. J. Heyd, E. Brothers, 
 K. N. Kudin, V. N. Staroverov, T. Keith, R. Kobayashi, J. Normand, 
 K. Raghavachari, A. Rendell, J. C. Burant, S. S. Iyengar, J. Tomasi, 
 M. Cossi, N. Rega, J. M. Millam, M. Klene, J. E. Knox, J. B. Cross, 
 V. Bakken, C. Adamo, J. Jaramillo, R. Gomperts, R. E. Stratmann, 
 O. Yazyev, A. J. Austin, R. Cammi, C. Pomelli, J. W. Ochterski, 
 R. L. Martin, K. Morokuma, V. G. Zakrzewski, G. A. Voth, 
 P. Salvador, J. J. Dannenberg, S. Dapprich, A. D. Daniels, 
 O. Farkas, J. B. Foresman, J. V. Ortiz, J. Cioslowski, 
 and D. J. Fox, Gaussian, Inc., Wallingford CT, 2013.
 
 ******************************************
 Gaussian 09:  ES64L-G09RevE.01 30-Nov-2015
                 5-Oct-2018 
 ******************************************
 %nproc=2
 Will use up to    2 processors via shared memory.
 --------------
 # opt hf/3-21g
 --------------
 1/18=20,19=15,38=1/1,3;
 2/9=110,12=2,17=6,18=5,40=1/2;
 3/5=5,11=9,16=1,25=1,30=1,71=1/1,2,3;
 4//1;
 5/5=2,38=5/2;
 6/7=2,8=2,9=2,10=2,28=1/1;
 7//1,2,3,16;
 1/18=20,19=15/3(2);
 2/9=110/2;
 99//99;
 2/9=110/2;
 3/5=5,11=9,16=1,25=1,30=1,71=1/1,2,3;
 4/5=5,16=3,69=1/1;
 5/5=2,38=5/2;
 7//1,2,3,16;
 1/18=20,19=15/3(-5);
 2/9=110/2;
 6/7=2,8=2,9=2,10=2,19=2,28=1/1;
 99/9=1/99;
 -------------
 oxepin-hf.log
 -------------
 Symbolic Z-matrix:
 Charge =  0 Multiplicity = 1
 C                    -1.43762   0.66502   0.13904 
 C                    -0.29372   1.50142  -0.2411 
 C                     0.97402   1.15901  -0.10594 
 C                     0.97402  -1.15901  -0.10594 
 C                    -0.29372  -1.50142  -0.2411 
 C                    -1.43762  -0.66502   0.13904 
 H                    -2.34628   1.18339   0.39336 
 H                    -0.49947   2.46562  -0.67197 
 H                    -0.49947  -2.46562  -0.67197 
 H                    -2.34628  -1.18339   0.39336 
 O                     1.40144   0.        0.48528 
 H                     1.78387  -1.79383  -0.4145 
 H                     1.78387   1.79383  -0.4145 
 

 GradGradGradGradGradGradGradGradGradGradGradGradGradGradGradGradGradGrad
 Berny optimization.
 Initialization pass.
                           ----------------------------
                           !    Initial Parameters    !
                           ! (Angstroms and Degrees)  !
 --------------------------                            --------------------------
 ! Name  Definition              Value          Derivative Info.                !
 --------------------------------------------------------------------------------
 ! R1    R(1,2)                  1.4672         estimate D2E/DX2                !
 ! R2    R(1,6)                  1.33           estimate D2E/DX2                !
 ! R3    R(1,7)                  1.0766         estimate D2E/DX2                !
 ! R4    R(2,3)                  1.3201         estimate D2E/DX2                !
 ! R5    R(2,8)                  1.0759         estimate D2E/DX2                !
 ! R6    R(3,11)                 1.3695         estimate D2E/DX2                !
 ! R7    R(3,13)                 1.0743         estimate D2E/DX2                !
 ! R8    R(4,5)                  1.3201         estimate D2E/DX2                !
 ! R9    R(4,11)                 1.3695         estimate D2E/DX2                !
 ! R10   R(4,12)                 1.0743         estimate D2E/DX2                !
 ! R11   R(5,6)                  1.4672         estimate D2E/DX2                !
 ! R12   R(5,9)                  1.0759         estimate D2E/DX2                !
 ! R13   R(6,10)                 1.0766         estimate D2E/DX2                !
 ! A1    A(2,1,6)              124.7557         estimate D2E/DX2                !
 ! A2    A(2,1,7)              116.4085         estimate D2E/DX2                !
 ! A3    A(6,1,7)              118.7829         estimate D2E/DX2                !
 ! A4    A(1,2,3)              125.0537         estimate D2E/DX2                !
 ! A5    A(1,2,8)              117.7448         estimate D2E/DX2                !
 ! A6    A(3,2,8)              117.1991         estimate D2E/DX2                !
 ! A7    A(2,3,11)             124.2936         estimate D2E/DX2                !
 ! A8    A(2,3,13)             122.7702         estimate D2E/DX2                !
 ! A9    A(11,3,13)            112.8813         estimate D2E/DX2                !
 ! A10   A(5,4,11)             124.2936         estimate D2E/DX2                !
 ! A11   A(5,4,12)             122.7702         estimate D2E/DX2                !
 ! A12   A(11,4,12)            112.8813         estimate D2E/DX2                !
 ! A13   A(4,5,6)              125.0537         estimate D2E/DX2                !
 ! A14   A(4,5,9)              117.1991         estimate D2E/DX2                !
 ! A15   A(6,5,9)              117.7448         estimate D2E/DX2                !
 ! A16   A(1,6,5)              124.7557         estimate D2E/DX2                !
 ! A17   A(1,6,10)             118.7829         estimate D2E/DX2                !
 ! A18   A(5,6,10)             116.4085         estimate D2E/DX2                !
 ! A19   A(3,11,4)             115.6232         estimate D2E/DX2                !
 ! D1    D(6,1,2,3)            -29.2517         estimate D2E/DX2                !
 ! D2    D(6,1,2,8)            150.1634         estimate D2E/DX2                !
 ! D3    D(7,1,2,3)            153.436          estimate D2E/DX2                !
 ! D4    D(7,1,2,8)            -27.149          estimate D2E/DX2                !
 ! D5    D(2,1,6,5)              0.0            estimate D2E/DX2                !
 ! D6    D(2,1,6,10)          -177.2535         estimate D2E/DX2                !
 ! D7    D(7,1,6,5)            177.2535         estimate D2E/DX2                !
 ! D8    D(7,1,6,10)             0.0            estimate D2E/DX2                !
 ! D9    D(1,2,3,11)            -4.0929         estimate D2E/DX2                !
 ! D10   D(1,2,3,13)           178.796          estimate D2E/DX2                !
 ! D11   D(8,2,3,11)           176.4891         estimate D2E/DX2                !
 ! D12   D(8,2,3,13)            -0.622          estimate D2E/DX2                !
 ! D13   D(2,3,11,4)            60.3896         estimate D2E/DX2                !
 ! D14   D(13,3,11,4)         -122.2468         estimate D2E/DX2                !
 ! D15   D(11,4,5,6)             4.0929         estimate D2E/DX2                !
 ! D16   D(11,4,5,9)          -176.4891         estimate D2E/DX2                !
 ! D17   D(12,4,5,6)          -178.796          estimate D2E/DX2                !
 ! D18   D(12,4,5,9)             0.622          estimate D2E/DX2                !
 ! D19   D(5,4,11,3)           -60.3896         estimate D2E/DX2                !
 ! D20   D(12,4,11,3)          122.2468         estimate D2E/DX2                !
 ! D21   D(4,5,6,1)             29.2517         estimate D2E/DX2                !
 ! D22   D(4,5,6,10)          -153.436          estimate D2E/DX2                !
 ! D23   D(9,5,6,1)           -150.1634         estimate D2E/DX2                !
 ! D24   D(9,5,6,10)            27.149          estimate D2E/DX2                !
 --------------------------------------------------------------------------------
 Trust Radius=3.00D-01 FncErr=1.00D-07 GrdErr=1.00D-07
 Number of steps in this run=     66 maximum allowed number of steps=    100.
 GradGradGradGradGradGradGradGradGradGradGradGradGradGradGradGradGradGrad

                          Input orientation:                          
 ---------------------------------------------------------------------
 Center     Atomic      Atomic             Coordinates (Angstroms)
 Number     Number       Type             X           Y           Z
 ---------------------------------------------------------------------
      1          6           0       -1.437620    0.665020    0.139040
      2          6           0       -0.293720    1.501420   -0.241100
      3          6           0        0.974020    1.159010   -0.105940
      4          6           0        0.974020   -1.159010   -0.105940
      5          6           0       -0.293720   -1.501420   -0.241100
      6          6           0       -1.437620   -0.665020    0.139040
      7          1           0       -2.346280    1.183390    0.393360
      8          1           0       -0.499470    2.465620   -0.671970
      9          1           0       -0.499470   -2.465620   -0.671970
     10          1           0       -2.346280   -1.183390    0.393360
     11          8           0        1.401440    0.000000    0.485280
     12          1           0        1.783870   -1.793830   -0.414500
     13          1           0        1.783870    1.793830   -0.414500
 ---------------------------------------------------------------------
                    Distance matrix (angstroms):
                    1          2          3          4          5
     1  C    0.000000
     2  C    1.467167   0.000000
     3  C    2.473873   1.320105   0.000000
     4  C    3.033662   2.950139   2.318020   0.000000
     5  C    2.479209   3.002840   2.950139   1.320105   0.000000
     6  C    1.330040   2.479209   3.033662   2.473873   1.467167
     7  H    1.076591   2.171793   3.357721   4.093963   3.438568
     8  H    2.186326   1.075948   2.049096   3.953417   3.995671
     9  H    3.367309   3.995671   3.953417   2.049096   1.075948
    10  H    2.075322   3.438568   4.093963   3.357721   2.171793
    11  O    2.936392   2.378121   1.369501   1.369501   2.378121
    12  H    4.090275   3.899374   3.077390   1.074273   2.105220
    13  H    3.458123   2.105220   1.074273   3.077390   3.899374
                    6          7          8          9         10
     6  C    0.000000
     7  H    2.075322   0.000000
     8  H    3.367309   2.487921   0.000000
     9  H    2.186326   4.226217   4.931240   0.000000
    10  H    1.076591   2.366780   4.226217   2.487921   0.000000
    11  O    2.936392   3.931191   3.321441   3.321441   3.931191
    12  H    3.458123   5.155057   4.839716   2.394000   4.252460
    13  H    4.090275   4.252460   2.394000   4.839716   5.155057
                   11         12         13
    11  O    0.000000
    12  H    2.042959   0.000000
    13  H    2.042959   3.587660   0.000000
 Stoichiometry    C6H6O
 Framework group  CS[SG(O),X(C6H6)]
 Deg. of freedom    17
 Full point group                 CS      NOp   2
 Largest Abelian subgroup         CS      NOp   2
 Largest concise Abelian subgroup CS      NOp   2
                         Standard orientation:                         
 ---------------------------------------------------------------------
 Center     Atomic      Atomic             Coordinates (Angstroms)
 Number     Number       Type             X           Y           Z
 ---------------------------------------------------------------------
      1          6           0        0.290664   -1.414777    0.665020
      2          6           0       -0.208603   -0.317623    1.501420
      3          6           0       -0.208603    0.957301    1.159010
      4          6           0       -0.208603    0.957301   -1.159010
      5          6           0       -0.208603   -0.317623   -1.501420
      6          6           0        0.290664   -1.414777   -0.665020
      7          1           0        0.639881   -2.291355    1.183390
      8          1           0       -0.615233   -0.567892    2.465620
      9          1           0       -0.615233   -0.567892   -2.465620
     10          1           0        0.639881   -2.291355   -1.183390
     11          8           0        0.333972    1.444990    0.000000
     12          1           0       -0.601280    1.729876   -1.793830
     13          1           0       -0.601280    1.729876    1.793830
 ---------------------------------------------------------------------
 Rotational constants (GHZ):      4.0140168      3.8500343      2.0849080
 Standard basis: 3-21G (6D, 7F)
 There are    40 symmetry adapted cartesian basis functions of A'  symmetry.
 There are    35 symmetry adapted cartesian basis functions of A"  symmetry.
 There are    40 symmetry adapted basis functions of A'  symmetry.
 There are    35 symmetry adapted basis functions of A"  symmetry.
    75 basis functions,   123 primitive gaussians,    75 cartesian basis functions
    25 alpha electrons       25 beta electrons
       nuclear repulsion energy       276.9994667030 Hartrees.
 NAtoms=   13 NActive=   13 NUniq=    7 SFac= 3.45D+00 NAtFMM=   60 NAOKFM=F Big=F
 Integral buffers will be    131072 words long.
 Raffenetti 1 integral format.
 Two-electron integral symmetry is turned on.
 One-electron integrals computed using PRISM.
 NBasis=    75 RedAO= T EigKep=  2.64D-03  NBF=    40    35
 NBsUse=    75 1.00D-06 EigRej= -1.00D+00 NBFU=    40    35
 ExpMin= 1.83D-01 ExpMax= 3.22D+02 ExpMxC= 3.22D+02 IAcc=1 IRadAn=         1 AccDes= 0.00D+00
 Harris functional with IExCor=  205 and IRadAn=       1 diagonalized for initial guess.
 HarFok:  IExCor=  205 AccDes= 0.00D+00 IRadAn=         1 IDoV= 1 UseB2=F ITyADJ=14
 ICtDFT=  3500011 ScaDFX=  1.000000  1.000000  1.000000  1.000000
 FoFCou: FMM=F IPFlag=           0 FMFlag=      100000 FMFlg1=           0
         NFxFlg=           0 DoJE=T BraDBF=F KetDBF=T FulRan=T
         wScrn=  0.000000 ICntrl=     500 IOpCl=  0 I1Cent=   200000004 NGrid=           0
         NMat0=    1 NMatS0=      1 NMatT0=    0 NMatD0=    1 NMtDS0=    0 NMtDT0=    0
 Petite list used in FoFCou.
 Initial guess orbital symmetries:
       Occupied  (A') (A") (A') (A") (A') (A") (A') (A') (A') (A")
                 (A') (A") (A") (A') (A') (A") (A') (A') (A") (A')
                 (A") (A') (A') (A") (A')
       Virtual   (A") (A') (A") (A') (A') (A") (A') (A') (A") (A")
                 (A") (A') (A") (A') (A") (A") (A') (A') (A") (A')
                 (A') (A') (A") (A") (A') (A") (A') (A') (A") (A")
                 (A") (A') (A") (A') (A") (A") (A') (A') (A') (A")
                 (A") (A') (A") (A') (A') (A') (A") (A") (A") (A')
 The electronic state of the initial guess is 1-A'.
 Keep R1 ints in memory in symmetry-blocked form, NReq=6138275.
 Requested convergence on RMS density matrix=1.00D-08 within 128 cycles.
 Requested convergence on MAX density matrix=1.00D-06.
 Requested convergence on             energy=1.00D-06.
 No special actions if energy rises.
 SCF Done:  E(RHF) =  -303.788728792     A.U. after   12 cycles
            NFock= 12  Conv=0.54D-08     -V/T= 2.0022

 **********************************************************************

            Population analysis using the SCF density.

 **********************************************************************

 Orbital symmetries:
       Occupied  (A') (A") (A') (A") (A') (A") (A') (A') (A') (A")
                 (A') (A") (A") (A') (A') (A") (A') (A') (A") (A')
                 (A") (A') (A') (A") (A')
       Virtual   (A") (A') (A') (A") (A") (A') (A') (A") (A') (A")
                 (A") (A') (A") (A') (A") (A") (A') (A') (A") (A')
                 (A') (A") (A') (A") (A') (A') (A") (A') (A") (A")
                 (A") (A') (A") (A') (A") (A") (A') (A') (A') (A")
                 (A") (A") (A') (A') (A') (A') (A") (A") (A") (A')
 The electronic state is 1-A'.
 Alpha  occ. eigenvalues --  -20.48614 -11.24244 -11.24201 -11.18333 -11.18326
 Alpha  occ. eigenvalues --  -11.17719 -11.17700  -1.42812  -1.10923  -1.07349
 Alpha  occ. eigenvalues --   -0.97189  -0.88792  -0.75794  -0.75667  -0.72205
 Alpha  occ. eigenvalues --   -0.64705  -0.63935  -0.61227  -0.59180  -0.55449
 Alpha  occ. eigenvalues --   -0.49918  -0.47345  -0.43920  -0.38668  -0.29915
 Alpha virt. eigenvalues --    0.10943   0.20307   0.26481   0.28277   0.30544
 Alpha virt. eigenvalues --    0.32628   0.34191   0.36754   0.36858   0.37431
 Alpha virt. eigenvalues --    0.50217   0.54174   0.54858   0.63123   0.71072
 Alpha virt. eigenvalues --    0.74958   0.86901   0.92096   0.94023   0.94576
 Alpha virt. eigenvalues --    0.97069   1.01480   1.02091   1.08170   1.08579
 Alpha virt. eigenvalues --    1.10602   1.11327   1.12410   1.15280   1.19370
 Alpha virt. eigenvalues --    1.28207   1.32051   1.32583   1.39357   1.41014
 Alpha virt. eigenvalues --    1.43160   1.46559   1.54152   1.65683   1.66025
 Alpha virt. eigenvalues --    1.72073   1.73279   1.74238   1.93591   2.05433
 Alpha virt. eigenvalues --    2.14460   2.15278   2.34926   2.40509   3.58048
          Condensed to atoms (all electrons):
               1          2          3          4          5          6
     1  C    5.170806   0.339873  -0.099361   0.006054  -0.098311   0.561845
     2  C    0.339873   5.437104   0.446750  -0.009567   0.006751  -0.098311
     3  C   -0.099361   0.446750   4.910973  -0.065870  -0.009567   0.006054
     4  C    0.006054  -0.009567  -0.065870   4.910973   0.446750  -0.099361
     5  C   -0.098311   0.006751  -0.009567   0.446750   5.437104   0.339873
     6  C    0.561845  -0.098311   0.006054  -0.099361   0.339873   5.170806
     7  H    0.399357  -0.035340   0.001961  -0.000025   0.002423  -0.039496
     8  H   -0.028212   0.381985  -0.029598   0.000084  -0.000089   0.001701
     9  H    0.001701  -0.000089   0.000084  -0.029598   0.381985  -0.028212
    10  H   -0.039496   0.002423  -0.000025   0.001961  -0.035340   0.399357
    11  O    0.001027  -0.079198   0.274444   0.274444  -0.079198   0.001027
    12  H   -0.000028  -0.000578   0.003276   0.397961  -0.072465   0.002395
    13  H    0.002395  -0.072465   0.397961   0.003276  -0.000578  -0.000028
               7          8          9         10         11         12
     1  C    0.399357  -0.028212   0.001701  -0.039496   0.001027  -0.000028
     2  C   -0.035340   0.381985  -0.000089   0.002423  -0.079198  -0.000578
     3  C    0.001961  -0.029598   0.000084  -0.000025   0.274444   0.003276
     4  C   -0.000025   0.000084  -0.029598   0.001961   0.274444   0.397961
     5  C    0.002423  -0.000089   0.381985  -0.035340  -0.079198  -0.072465
     6  C   -0.039496   0.001701  -0.028212   0.399357   0.001027   0.002395
     7  H    0.435237  -0.000458  -0.000037  -0.001944   0.000045   0.000002
     8  H   -0.000458   0.430555   0.000002  -0.000037   0.001317   0.000008
     9  H   -0.000037   0.000002   0.430555  -0.000458   0.001317   0.000807
    10  H   -0.001944  -0.000037  -0.000458   0.435237   0.000045  -0.000016
    11  O    0.000045   0.001317   0.001317   0.000045   8.377603  -0.037321
    12  H    0.000002   0.000008   0.000807  -0.000016  -0.037321   0.462635
    13  H   -0.000016   0.000807   0.000008   0.000002  -0.037321   0.000364
              13
     1  C    0.002395
     2  C   -0.072465
     3  C    0.397961
     4  C    0.003276
     5  C   -0.000578
     6  C   -0.000028
     7  H   -0.000016
     8  H    0.000807
     9  H    0.000008
    10  H    0.000002
    11  O   -0.037321
    12  H    0.000364
    13  H    0.462635
 Mulliken charges:
               1
     1  C   -0.217651
     2  C   -0.319338
     3  C    0.162919
     4  C    0.162919
     5  C   -0.319338
     6  C   -0.217651
     7  H    0.238291
     8  H    0.241934
     9  H    0.241934
    10  H    0.238291
    11  O   -0.698234
    12  H    0.242961
    13  H    0.242961
 Sum of Mulliken charges =   0.00000
 Mulliken charges with hydrogens summed into heavy atoms:
               1
     1  C    0.020640
     2  C   -0.077404
     3  C    0.405880
     4  C    0.405880
     5  C   -0.077404
     6  C    0.020640
    11  O   -0.698234
 Electronic spatial extent (au):  <R**2>=            607.2224
 Charge=              0.0000 electrons
 Dipole moment (field-independent basis, Debye):
    X=             -1.4649    Y=             -0.8266    Z=              0.0000  Tot=              1.6820
 Quadrupole moment (field-independent basis, Debye-Ang):
   XX=            -44.7511   YY=            -39.3198   ZZ=            -35.3168
   XY=             -3.8623   XZ=              0.0000   YZ=              0.0000
 Traceless Quadrupole moment (field-independent basis, Debye-Ang):
   XX=             -4.9552   YY=              0.4761   ZZ=              4.4791
   XY=             -3.8623   XZ=              0.0000   YZ=              0.0000
 Octapole moment (field-independent basis, Debye-Ang**2):
  XXX=              1.3049  YYY=              1.1335  ZZZ=              0.0000  XYY=             -0.4682
  XXY=              3.0060  XXZ=              0.0000  XZZ=             -6.5106  YZZ=              2.7004
  YYZ=              0.0000  XYZ=              0.0000
 Hexadecapole moment (field-independent basis, Debye-Ang**3):
 XXXX=            -71.1908 YYYY=           -351.3920 ZZZZ=           -352.8420 XXXY=             19.2419
 XXXZ=              0.0000 YYYX=             -0.4183 YYYZ=              0.0000 ZZZX=              0.0000
 ZZZY=              0.0000 XXYY=            -73.0826 XXZZ=            -75.6990 YYZZ=           -104.1974
 XXYZ=              0.0000 YYXZ=              0.0000 ZZXY=              1.6016
 N-N= 2.769994667030D+02 E-N=-1.263624698897D+03  KE= 3.031309141265D+02
 Symmetry A'   KE= 1.880847003694D+02
 Symmetry A"   KE= 1.150462137571D+02
 Calling FoFJK, ICntrl=      2127 FMM=F ISym2X=1 I1Cent= 0 IOpClX= 0 NMat=1 NMatS=1 NMatT=0.
 ***** Axes restored to original set *****
 -------------------------------------------------------------------
 Center     Atomic                   Forces (Hartrees/Bohr)
 Number     Number              X              Y              Z
 -------------------------------------------------------------------
      1        6          -0.000555123   -0.001649549    0.000610741
      2        6           0.003394732    0.001893002   -0.001941667
      3        6          -0.008400827    0.030344613   -0.008077843
      4        6          -0.008400827   -0.030344613   -0.008077843
      5        6           0.003394732   -0.001893002   -0.001941667
      6        6          -0.000555123    0.001649549    0.000610741
      7        1           0.002131311   -0.000460726   -0.000578925
      8        1          -0.000471837   -0.002178427    0.000858182
      9        1          -0.000471837    0.002178427    0.000858182
     10        1           0.002131311    0.000460726   -0.000578925
     11        8           0.013603226    0.000000000    0.017715198
     12        1          -0.002899870    0.000619034    0.000271913
     13        1          -0.002899870   -0.000619034    0.000271913
 -------------------------------------------------------------------
 Cartesian Forces:  Max     0.030344613 RMS     0.008314337

 GradGradGradGradGradGradGradGradGradGradGradGradGradGradGradGradGradGrad
 Berny optimization.
 FormGI is forming the generalized inverse of G from B-inverse, IUseBI=4.
 Internal  Forces:  Max     0.028012252 RMS     0.005825154
 Search for a local minimum.
 Step number   1 out of a maximum of   66
 All quantities printed in internal units (Hartrees-Bohrs-Radians)
 Mixed Optimization -- RFO/linear search
 Second derivative matrix not updated -- first step.
 ITU=  0
     Eigenvalues ---    0.01660   0.01862   0.02183   0.02215   0.02336
     Eigenvalues ---    0.02511   0.02832   0.02840   0.03016   0.04197
     Eigenvalues ---    0.15981   0.15987   0.15988   0.15993   0.15999
     Eigenvalues ---    0.16000   0.19352   0.20173   0.21879   0.22185
     Eigenvalues ---    0.34691   0.35337   0.36409   0.36409   0.36488
     Eigenvalues ---    0.36488   0.36695   0.36695   0.48301   0.49108
     Eigenvalues ---    0.57911   0.58181   0.61769
 RFO step:  Lambda=-4.51908984D-03 EMin= 1.66026783D-02
 Linear search not attempted -- first point.
 Iteration  1 RMS(Cart)=  0.02803263 RMS(Int)=  0.00038024
 Iteration  2 RMS(Cart)=  0.00029790 RMS(Int)=  0.00015515
 Iteration  3 RMS(Cart)=  0.00000022 RMS(Int)=  0.00015515
 ClnCor:  largest displacement from symmetrization is 1.45D-11 for atom    10.
 Variable       Old X    -DE/DX   Delta X   Delta X   Delta X     New X
                                 (Linear)    (Quad)   (Total)
    R1        2.77254   0.00070   0.00000  -0.00112  -0.00101   2.77154
    R2        2.51341   0.00126   0.00000  -0.00114  -0.00095   2.51246
    R3        2.03446  -0.00216   0.00000  -0.00585  -0.00585   2.02861
    R4        2.49464  -0.00516   0.00000  -0.00747  -0.00751   2.48712
    R5        2.03325  -0.00221   0.00000  -0.00597  -0.00597   2.02728
    R6        2.58798   0.02801   0.00000   0.05756   0.05739   2.64537
    R7        2.03008  -0.00263   0.00000  -0.00708  -0.00708   2.02300
    R8        2.49464  -0.00516   0.00000  -0.00747  -0.00751   2.48712
    R9        2.58798   0.02801   0.00000   0.05756   0.05739   2.64537
   R10        2.03008  -0.00263   0.00000  -0.00708  -0.00708   2.02300
   R11        2.77254   0.00070   0.00000  -0.00112  -0.00101   2.77154
   R12        2.03325  -0.00221   0.00000  -0.00597  -0.00597   2.02728
   R13        2.03446  -0.00216   0.00000  -0.00585  -0.00585   2.02861
    A1        2.17740   0.00592   0.00000   0.01669   0.01674   2.19414
    A2        2.03171  -0.00363   0.00000  -0.01239  -0.01242   2.01929
    A3        2.07315  -0.00229   0.00000  -0.00425  -0.00428   2.06888
    A4        2.18260  -0.00124   0.00000  -0.00298  -0.00312   2.17948
    A5        2.05503  -0.00030   0.00000  -0.00408  -0.00403   2.05100
    A6        2.04551   0.00155   0.00000   0.00715   0.00719   2.05270
    A7        2.16933  -0.00511   0.00000  -0.00780  -0.00834   2.16099
    A8        2.14274   0.00120   0.00000  -0.00400  -0.00394   2.13881
    A9        1.97015   0.00396   0.00000   0.01307   0.01313   1.98328
   A10        2.16933  -0.00511   0.00000  -0.00780  -0.00834   2.16099
   A11        2.14274   0.00120   0.00000  -0.00400  -0.00394   2.13881
   A12        1.97015   0.00396   0.00000   0.01307   0.01313   1.98328
   A13        2.18260  -0.00124   0.00000  -0.00298  -0.00312   2.17948
   A14        2.04551   0.00155   0.00000   0.00715   0.00719   2.05270
   A15        2.05503  -0.00030   0.00000  -0.00408  -0.00403   2.05100
   A16        2.17740   0.00592   0.00000   0.01669   0.01674   2.19414
   A17        2.07315  -0.00229   0.00000  -0.00425  -0.00428   2.06888
   A18        2.03171  -0.00363   0.00000  -0.01239  -0.01242   2.01929
   A19        2.01801   0.00381   0.00000   0.03701   0.03675   2.05475
    D1       -0.51054  -0.00025   0.00000  -0.00658  -0.00669  -0.51723
    D2        2.62085  -0.00009   0.00000   0.00433   0.00414   2.62499
    D3        2.67796  -0.00021   0.00000  -0.00774  -0.00775   2.67021
    D4       -0.47384  -0.00004   0.00000   0.00316   0.00308  -0.47076
    D5        0.00000   0.00000   0.00000   0.00000   0.00000   0.00000
    D6       -3.09366   0.00007   0.00000  -0.00100  -0.00091  -3.09457
    D7        3.09366  -0.00007   0.00000   0.00100   0.00091   3.09457
    D8        0.00000   0.00000   0.00000   0.00000   0.00000   0.00000
    D9       -0.07143   0.00097   0.00000   0.03237   0.03215  -0.03929
   D10        3.12058  -0.00058   0.00000  -0.00155  -0.00163   3.11895
   D11        3.08032   0.00082   0.00000   0.02157   0.02137   3.10168
   D12       -0.01086  -0.00073   0.00000  -0.01234  -0.01241  -0.02326
   D13        1.05400  -0.00287   0.00000  -0.05110  -0.05138   1.00262
   D14       -2.13361  -0.00149   0.00000  -0.02053  -0.02068  -2.15429
   D15        0.07143  -0.00097   0.00000  -0.03237  -0.03215   0.03929
   D16       -3.08032  -0.00082   0.00000  -0.02157  -0.02137  -3.10168
   D17       -3.12058   0.00058   0.00000   0.00155   0.00163  -3.11895
   D18        0.01086   0.00073   0.00000   0.01234   0.01241   0.02326
   D19       -1.05400   0.00287   0.00000   0.05110   0.05138  -1.00262
   D20        2.13361   0.00149   0.00000   0.02053   0.02068   2.15429
   D21        0.51054   0.00025   0.00000   0.00658   0.00669   0.51723
   D22       -2.67796   0.00021   0.00000   0.00774   0.00775  -2.67021
   D23       -2.62085   0.00009   0.00000  -0.00433  -0.00414  -2.62499
   D24        0.47384   0.00004   0.00000  -0.00316  -0.00308   0.47076
         Item               Value     Threshold  Converged?
 Maximum Force            0.028012     0.000450     NO 
 RMS     Force            0.005825     0.000300     NO 
 Maximum Displacement     0.096579     0.001800     NO 
 RMS     Displacement     0.027950     0.001200     NO 
 Predicted change in Energy=-2.312044D-03
 GradGradGradGradGradGradGradGradGradGradGradGradGradGradGradGradGradGrad

                          Input orientation:                          
 ---------------------------------------------------------------------
 Center     Atomic      Atomic             Coordinates (Angstroms)
 Number     Number       Type             X           Y           Z
 ---------------------------------------------------------------------
      1          6           0       -1.424275    0.664768    0.132470
      2          6           0       -0.294169    1.520920   -0.242871
      3          6           0        0.973923    1.198215   -0.101456
      4          6           0        0.973923   -1.198215   -0.101456
      5          6           0       -0.294169   -1.520920   -0.242871
      6          6           0       -1.424275   -0.664768    0.132470
      7          1           0       -2.332253    1.177619    0.387324
      8          1           0       -0.518744    2.481925   -0.663478
      9          1           0       -0.518744   -2.481925   -0.663478
     10          1           0       -2.332253   -1.177619    0.387324
     11          8           0        1.413442    0.000000    0.473650
     12          1           0        1.770318   -1.844938   -0.407285
     13          1           0        1.770318    1.844938   -0.407285
 ---------------------------------------------------------------------
                    Distance matrix (angstroms):
                    1          2          3          4          5
     1  C    0.000000
     2  C    1.466634   0.000000
     3  C    2.467922   1.316129   0.000000
     4  C    3.045781   3.003623   2.396429   0.000000
     5  C    2.489027   3.041840   3.003623   1.316129   0.000000
     6  C    1.329537   2.489027   3.045781   2.467922   1.466634
     7  H    1.073494   2.160737   3.342174   4.100523   3.439919
     8  H    2.180729   1.072788   2.047397   4.010904   4.031143
     9  H    3.369748   4.031143   4.010904   2.047397   1.072788
    10  H    2.069726   3.439919   4.100523   3.342174   2.160737
    11  O    2.934443   2.396359   1.399872   1.399872   2.396359
    12  H    4.098217   3.951979   3.160467   1.070527   2.096217
    13  H    3.448124   2.096217   1.070527   3.160467   3.951979
                    6          7          8          9         10
     6  C    0.000000
     7  H    2.069726   0.000000
     8  H    3.369748   2.468646   0.000000
     9  H    2.180729   4.217258   4.963850   0.000000
    10  H    1.073494   2.355238   4.217258   2.468646   0.000000
    11  O    2.934443   3.927399   3.344600   3.344600   3.927399
    12  H    3.448124   5.157358   4.901753   2.389810   4.231762
    13  H    4.098217   4.231762   2.389810   4.901753   5.157358
                   11         12         13
    11  O    0.000000
    12  H    2.075380   0.000000
    13  H    2.075380   3.689875   0.000000
 Stoichiometry    C6H6O
 Framework group  CS[SG(O),X(C6H6)]
 Deg. of freedom    17
 Full point group                 CS      NOp   2
 Largest Abelian subgroup         CS      NOp   2
 Largest concise Abelian subgroup CS      NOp   2
                         Standard orientation:                         
 ---------------------------------------------------------------------
 Center     Atomic      Atomic             Coordinates (Angstroms)
 Number     Number       Type             X           Y           Z
 ---------------------------------------------------------------------
      1          6           0       -0.322271   -1.398207    0.664768
      2          6           0       -0.322271   -0.207400    1.520920
      3          6           0        0.211636    0.951478    1.198215
      4          6           0        0.211636    0.951478   -1.198215
      5          6           0       -0.322271   -0.207400   -1.520920
      6          6           0       -0.322271   -1.398207   -0.664768
      7          1           0       -0.366601   -2.340230    1.177619
      8          1           0       -0.792224   -0.287952    2.481925
      9          1           0       -0.792224   -0.287952   -2.481925
     10          1           0       -0.366601   -2.340230   -1.177619
     11          8           0        0.895962    1.187320    0.000000
     12          1           0        0.172419    1.803675   -1.844938
     13          1           0        0.172419    1.803675    1.844938
 ---------------------------------------------------------------------
 Rotational constants (GHZ):      3.8946466      3.8750532      2.0547118
 Standard basis: 3-21G (6D, 7F)
 There are    40 symmetry adapted cartesian basis functions of A'  symmetry.
 There are    35 symmetry adapted cartesian basis functions of A"  symmetry.
 There are    40 symmetry adapted basis functions of A'  symmetry.
 There are    35 symmetry adapted basis functions of A"  symmetry.
    75 basis functions,   123 primitive gaussians,    75 cartesian basis functions
    25 alpha electrons       25 beta electrons
       nuclear repulsion energy       275.4058749133 Hartrees.
 NAtoms=   13 NActive=   13 NUniq=    7 SFac= 3.45D+00 NAtFMM=   60 NAOKFM=F Big=F
 Integral buffers will be    131072 words long.
 Raffenetti 1 integral format.
 Two-electron integral symmetry is turned on.
 One-electron integrals computed using PRISM.
 NBasis=    75 RedAO= T EigKep=  2.73D-03  NBF=    40    35
 NBsUse=    75 1.00D-06 EigRej= -1.00D+00 NBFU=    40    35
 Initial guess from the checkpoint file:  "/tmp/Gau-8677.chk"
 B after Tr=     0.000000    0.000000    0.000000
         Rot=    0.977352    0.000000    0.000000    0.211619 Ang=  24.43 deg.
 Initial guess orbital symmetries:
       Occupied  (A') (A") (A') (A") (A') (A") (A') (A') (A') (A")
                 (A') (A") (A") (A') (A') (A") (A') (A') (A") (A')
                 (A") (A') (A') (A") (A')
       Virtual   (A') (A') (A') (A') (A') (A') (A') (A') (A') (A')
                 (A') (A') (A') (A') (A') (A') (A') (A') (A') (A')
                 (A') (A') (A') (A') (A') (A") (A") (A") (A") (A")
                 (A") (A") (A") (A") (A") (A") (A") (A") (A") (A")
                 (A") (A") (A") (A") (A") (A") (A") (A") (A") (A")
 ExpMin= 1.83D-01 ExpMax= 3.22D+02 ExpMxC= 3.22D+02 IAcc=1 IRadAn=         1 AccDes= 0.00D+00
 Harris functional with IExCor=  205 and IRadAn=       1 diagonalized for initial guess.
 HarFok:  IExCor=  205 AccDes= 0.00D+00 IRadAn=         1 IDoV= 1 UseB2=F ITyADJ=14
 ICtDFT=  3500011 ScaDFX=  1.000000  1.000000  1.000000  1.000000
 FoFCou: FMM=F IPFlag=           0 FMFlag=      100000 FMFlg1=           0
         NFxFlg=           0 DoJE=T BraDBF=F KetDBF=T FulRan=T
         wScrn=  0.000000 ICntrl=     500 IOpCl=  0 I1Cent=   200000004 NGrid=           0
         NMat0=    1 NMatS0=      1 NMatT0=    0 NMatD0=    1 NMtDS0=    0 NMtDT0=    0
 Petite list used in FoFCou.
 Keep R1 ints in memory in symmetry-blocked form, NReq=6138275.
 Requested convergence on RMS density matrix=1.00D-08 within 128 cycles.
 Requested convergence on MAX density matrix=1.00D-06.
 Requested convergence on             energy=1.00D-06.
 No special actions if energy rises.
 SCF Done:  E(RHF) =  -303.790792089     A.U. after   11 cycles
            NFock= 11  Conv=0.66D-08     -V/T= 2.0025
 Calling FoFJK, ICntrl=      2127 FMM=F ISym2X=1 I1Cent= 0 IOpClX= 0 NMat=1 NMatS=1 NMatT=0.
 ***** Axes restored to original set *****
 -------------------------------------------------------------------
 Center     Atomic                   Forces (Hartrees/Bohr)
 Number     Number              X              Y              Z
 -------------------------------------------------------------------
      1        6          -0.000649524   -0.002661128   -0.000337974
      2        6           0.001127358   -0.001574426    0.000172720
      3        6          -0.003620965    0.001362535   -0.003545012
      4        6          -0.003620965   -0.001362535   -0.003545012
      5        6           0.001127358    0.001574426    0.000172720
      6        6          -0.000649524    0.002661128   -0.000337974
      7        1          -0.000376936    0.000126489    0.000327810
      8        1          -0.000397097    0.000239878    0.000386966
      9        1          -0.000397097   -0.000239878    0.000386966
     10        1          -0.000376936   -0.000126489    0.000327810
     11        8           0.005180774    0.000000000    0.002825349
     12        1           0.001326777    0.001654646    0.001582817
     13        1           0.001326777   -0.001654646    0.001582817
 -------------------------------------------------------------------
 Cartesian Forces:  Max     0.005180774 RMS     0.001811329

 GradGradGradGradGradGradGradGradGradGradGradGradGradGradGradGradGradGrad
 Berny optimization.
 Using GEDIIS/GDIIS optimizer.
 FormGI is forming the generalized inverse of G from B-inverse, IUseBI=4.
 Internal  Forces:  Max     0.003281143 RMS     0.001045319
 Search for a local minimum.
 Step number   2 out of a maximum of   66
 All quantities printed in internal units (Hartrees-Bohrs-Radians)
 Mixed Optimization -- RFO/linear search
 Update second derivatives using D2CorX and points    1    2
 DE= -2.06D-03 DEPred=-2.31D-03 R= 8.92D-01
 TightC=F SS=  1.41D+00  RLast= 1.40D-01 DXNew= 5.0454D-01 4.1960D-01
 Trust test= 8.92D-01 RLast= 1.40D-01 DXMaxT set to 4.20D-01
 ITU=  1  0
 Use linear search instead of GDIIS.
     Eigenvalues ---    0.01660   0.01868   0.02185   0.02193   0.02332
     Eigenvalues ---    0.02541   0.02811   0.02826   0.03010   0.04131
     Eigenvalues ---    0.15837   0.15983   0.15993   0.15999   0.16000
     Eigenvalues ---    0.16342   0.20349   0.20360   0.21863   0.23403
     Eigenvalues ---    0.34765   0.35384   0.36409   0.36424   0.36488
     Eigenvalues ---    0.36551   0.36574   0.36695   0.44930   0.49298
     Eigenvalues ---    0.58273   0.59530   0.61646
 RFO step:  Lambda=-3.26286897D-04 EMin= 1.66002592D-02
 Quartic linear search produced a step of -0.06034.
 Iteration  1 RMS(Cart)=  0.00741842 RMS(Int)=  0.00010584
 Iteration  2 RMS(Cart)=  0.00008908 RMS(Int)=  0.00006105
 Iteration  3 RMS(Cart)=  0.00000001 RMS(Int)=  0.00006105
 ClnCor:  largest displacement from symmetrization is 2.13D-08 for atom    10.
 Variable       Old X    -DE/DX   Delta X   Delta X   Delta X     New X
                                 (Linear)    (Quad)   (Total)
    R1        2.77154   0.00048   0.00006   0.00085   0.00089   2.77242
    R2        2.51246  -0.00307   0.00006  -0.00524  -0.00523   2.50723
    R3        2.02861   0.00046   0.00035   0.00041   0.00077   2.02938
    R4        2.48712   0.00003   0.00045  -0.00088  -0.00042   2.48670
    R5        2.02728   0.00015   0.00036  -0.00040  -0.00004   2.02723
    R6        2.64537   0.00046  -0.00346   0.00864   0.00522   2.65059
    R7        2.02300  -0.00046   0.00043  -0.00211  -0.00169   2.02132
    R8        2.48712   0.00003   0.00045  -0.00088  -0.00042   2.48670
    R9        2.64537   0.00046  -0.00346   0.00864   0.00522   2.65059
   R10        2.02300  -0.00046   0.00043  -0.00211  -0.00169   2.02132
   R11        2.77154   0.00048   0.00006   0.00085   0.00089   2.77242
   R12        2.02728   0.00015   0.00036  -0.00040  -0.00004   2.02723
   R13        2.02861   0.00046   0.00035   0.00041   0.00077   2.02938
    A1        2.19414  -0.00072  -0.00101  -0.00104  -0.00205   2.19209
    A2        2.01929   0.00048   0.00075   0.00082   0.00155   2.02084
    A3        2.06888   0.00024   0.00026   0.00060   0.00084   2.06972
    A4        2.17948   0.00104   0.00019   0.00359   0.00380   2.18328
    A5        2.05100  -0.00090   0.00024  -0.00474  -0.00455   2.04645
    A6        2.05270  -0.00014  -0.00043   0.00115   0.00066   2.05336
    A7        2.16099   0.00078   0.00050   0.00280   0.00335   2.16434
    A8        2.13881   0.00214   0.00024   0.01220   0.01231   2.15112
    A9        1.98328  -0.00293  -0.00079  -0.01528  -0.01620   1.96708
   A10        2.16099   0.00078   0.00050   0.00280   0.00335   2.16434
   A11        2.13881   0.00214   0.00024   0.01220   0.01231   2.15112
   A12        1.98328  -0.00293  -0.00079  -0.01528  -0.01620   1.96708
   A13        2.17948   0.00104   0.00019   0.00359   0.00380   2.18328
   A14        2.05270  -0.00014  -0.00043   0.00115   0.00066   2.05336
   A15        2.05100  -0.00090   0.00024  -0.00474  -0.00455   2.04645
   A16        2.19414  -0.00072  -0.00101  -0.00104  -0.00205   2.19209
   A17        2.06888   0.00024   0.00026   0.00060   0.00084   2.06972
   A18        2.01929   0.00048   0.00075   0.00082   0.00155   2.02084
   A19        2.05475  -0.00328  -0.00222  -0.01037  -0.01253   2.04222
    D1       -0.51723  -0.00040   0.00040   0.00129   0.00174  -0.51548
    D2        2.62499  -0.00014  -0.00025   0.01574   0.01553   2.64052
    D3        2.67021  -0.00034   0.00047  -0.00875  -0.00826   2.66195
    D4       -0.47076  -0.00008  -0.00019   0.00570   0.00553  -0.46523
    D5        0.00000   0.00000   0.00000   0.00000   0.00000   0.00000
    D6       -3.09457   0.00005   0.00006  -0.01030  -0.01027  -3.10484
    D7        3.09457  -0.00005  -0.00006   0.01030   0.01027   3.10484
    D8        0.00000   0.00000   0.00000   0.00000   0.00000   0.00000
    D9       -0.03929  -0.00081  -0.00194  -0.00430  -0.00622  -0.04551
   D10        3.11895   0.00031   0.00010   0.01839   0.01858   3.13754
   D11        3.10168  -0.00108  -0.00129  -0.01877  -0.02007   3.08162
   D12       -0.02326   0.00004   0.00075   0.00393   0.00474  -0.01852
   D13        1.00262   0.00003   0.00310  -0.00214   0.00090   1.00352
   D14       -2.15429  -0.00096   0.00125  -0.02279  -0.02136  -2.17565
   D15        0.03929   0.00081   0.00194   0.00430   0.00622   0.04551
   D16       -3.10168   0.00108   0.00129   0.01877   0.02007  -3.08162
   D17       -3.11895  -0.00031  -0.00010  -0.01839  -0.01858  -3.13754
   D18        0.02326  -0.00004  -0.00075  -0.00393  -0.00474   0.01852
   D19       -1.00262  -0.00003  -0.00310   0.00214  -0.00090  -1.00352
   D20        2.15429   0.00096  -0.00125   0.02279   0.02136   2.17565
   D21        0.51723   0.00040  -0.00040  -0.00129  -0.00174   0.51548
   D22       -2.67021   0.00034  -0.00047   0.00875   0.00826  -2.66195
   D23       -2.62499   0.00014   0.00025  -0.01574  -0.01553  -2.64052
   D24        0.47076   0.00008   0.00019  -0.00570  -0.00553   0.46523
         Item               Value     Threshold  Converged?
 Maximum Force            0.003281     0.000450     NO 
 RMS     Force            0.001045     0.000300     NO 
 Maximum Displacement     0.017832     0.001800     NO 
 RMS     Displacement     0.007422     0.001200     NO 
 Predicted change in Energy=-1.712303D-04
 GradGradGradGradGradGradGradGradGradGradGradGradGradGradGradGradGradGrad

                          Input orientation:                          
 ---------------------------------------------------------------------
 Center     Atomic      Atomic             Coordinates (Angstroms)
 Number     Number       Type             X           Y           Z
 ---------------------------------------------------------------------
      1          6           0       -1.427574    0.663386    0.127316
      2          6           0       -0.295349    1.517373   -0.248404
      3          6           0        0.973202    1.196011   -0.110133
      4          6           0        0.973202   -1.196011   -0.110133
      5          6           0       -0.295349   -1.517373   -0.248404
      6          6           0       -1.427574   -0.663386    0.127316
      7          1           0       -2.332882    1.177222    0.391231
      8          1           0       -0.522628    2.483453   -0.655662
      9          1           0       -0.522628   -2.483453   -0.655662
     10          1           0       -2.332882   -1.177222    0.391231
     11          8           0        1.420762    0.000000    0.470063
     12          1           0        1.776370   -1.841190   -0.397849
     13          1           0        1.776370    1.841190   -0.397849
 ---------------------------------------------------------------------
                    Distance matrix (angstroms):
                    1          2          3          4          5
     1  C    0.000000
     2  C    1.467104   0.000000
     3  C    2.470586   1.315908   0.000000
     4  C    3.045892   2.998464   2.392022   0.000000
     5  C    2.485720   3.034745   2.998464   1.315908   0.000000
     6  C    1.326771   2.485720   3.045892   2.470586   1.467104
     7  H    1.073901   2.162493   3.343936   4.100462   3.438243
     8  H    2.178216   1.072766   2.047588   4.009184   4.027918
     9  H    3.366686   4.027918   4.009184   2.047588   1.072766
    10  H    2.068108   3.438243   4.100462   3.343936   2.162493
    11  O    2.944584   2.400760   1.402633   1.402633   2.400760
    12  H    4.100482   3.948962   3.154751   1.069634   2.102192
    13  H    3.453734   2.102192   1.069634   3.154751   3.948962
                    6          7          8          9         10
     6  C    0.000000
     7  H    2.068108   0.000000
     8  H    3.366686   2.465612   0.000000
     9  H    2.178216   4.215868   4.966905   0.000000
    10  H    1.073901   2.354444   4.215868   2.465612   0.000000
    11  O    2.944584   3.934706   3.348367   3.348367   3.934706
    12  H    3.453734   5.159401   4.904528   2.400908   4.236680
    13  H    4.100482   4.236680   2.400908   4.904528   5.159401
                   11         12         13
    11  O    0.000000
    12  H    2.066328   0.000000
    13  H    2.066328   3.682381   0.000000
 Stoichiometry    C6H6O
 Framework group  CS[SG(O),X(C6H6)]
 Deg. of freedom    17
 Full point group                 CS      NOp   2
 Largest Abelian subgroup         CS      NOp   2
 Largest concise Abelian subgroup CS      NOp   2
                         Standard orientation:                         
 ---------------------------------------------------------------------
 Center     Atomic      Atomic             Coordinates (Angstroms)
 Number     Number       Type             X           Y           Z
 ---------------------------------------------------------------------
      1          6           0       -0.323684   -1.401161    0.663386
      2          6           0       -0.323684   -0.208224    1.517373
      3          6           0        0.207084    0.952218    1.196011
      4          6           0        0.207084    0.952218   -1.196011
      5          6           0       -0.323684   -0.208224   -1.517373
      6          6           0       -0.323684   -1.401161   -0.663386
      7          1           0       -0.358330   -2.343517    1.177222
      8          1           0       -0.781798   -0.295669    2.483453
      9          1           0       -0.781798   -0.295669   -2.483453
     10          1           0       -0.358330   -2.343517   -1.177222
     11          8           0        0.898713    1.194266    0.000000
     12          1           0        0.186971    1.805128   -1.841190
     13          1           0        0.186971    1.805128    1.841190
 ---------------------------------------------------------------------
 Rotational constants (GHZ):      3.9079502      3.8573023      2.0534240
 Standard basis: 3-21G (6D, 7F)
 There are    40 symmetry adapted cartesian basis functions of A'  symmetry.
 There are    35 symmetry adapted cartesian basis functions of A"  symmetry.
 There are    40 symmetry adapted basis functions of A'  symmetry.
 There are    35 symmetry adapted basis functions of A"  symmetry.
    75 basis functions,   123 primitive gaussians,    75 cartesian basis functions
    25 alpha electrons       25 beta electrons
       nuclear repulsion energy       275.3280464953 Hartrees.
 NAtoms=   13 NActive=   13 NUniq=    7 SFac= 3.45D+00 NAtFMM=   60 NAOKFM=F Big=F
 Integral buffers will be    131072 words long.
 Raffenetti 1 integral format.
 Two-electron integral symmetry is turned on.
 One-electron integrals computed using PRISM.
 NBasis=    75 RedAO= T EigKep=  2.70D-03  NBF=    40    35
 NBsUse=    75 1.00D-06 EigRej= -1.00D+00 NBFU=    40    35
 Initial guess from the checkpoint file:  "/tmp/Gau-8677.chk"
 B after Tr=     0.000000    0.000000    0.000000
         Rot=    1.000000    0.000000    0.000000   -0.000482 Ang=  -0.06 deg.
 Initial guess orbital symmetries:
       Occupied  (A') (A") (A') (A") (A') (A") (A') (A') (A') (A")
                 (A') (A") (A') (A") (A') (A") (A') (A') (A") (A')
                 (A") (A') (A') (A") (A')
       Virtual   (A') (A') (A') (A') (A') (A') (A') (A') (A') (A')
                 (A') (A') (A') (A') (A') (A') (A') (A') (A') (A')
                 (A') (A') (A') (A') (A') (A") (A") (A") (A") (A")
                 (A") (A") (A") (A") (A") (A") (A") (A") (A") (A")
                 (A") (A") (A") (A") (A") (A") (A") (A") (A") (A")
 Keep R1 ints in memory in symmetry-blocked form, NReq=6138275.
 Requested convergence on RMS density matrix=1.00D-08 within 128 cycles.
 Requested convergence on MAX density matrix=1.00D-06.
 Requested convergence on             energy=1.00D-06.
 No special actions if energy rises.
 SCF Done:  E(RHF) =  -303.790966210     A.U. after   10 cycles
            NFock= 10  Conv=0.88D-08     -V/T= 2.0025
 Calling FoFJK, ICntrl=      2127 FMM=F ISym2X=1 I1Cent= 0 IOpClX= 0 NMat=1 NMatS=1 NMatT=0.
 ***** Axes restored to original set *****
 -------------------------------------------------------------------
 Center     Atomic                   Forces (Hartrees/Bohr)
 Number     Number              X              Y              Z
 -------------------------------------------------------------------
      1        6           0.000032819    0.000257046    0.000195622
      2        6           0.000427028   -0.000441593    0.000362307
      3        6          -0.001407827    0.000677855    0.000116950
      4        6          -0.001407827   -0.000677855    0.000116950
      5        6           0.000427028    0.000441593    0.000362307
      6        6           0.000032819   -0.000257046    0.000195622
      7        1          -0.000042639    0.000242914   -0.000164855
      8        1           0.000042119    0.000111753   -0.000385475
      9        1           0.000042119   -0.000111753   -0.000385475
     10        1          -0.000042639   -0.000242914   -0.000164855
     11        8           0.001238399    0.000000000   -0.000430468
     12        1           0.000329301    0.000236148    0.000090685
     13        1           0.000329301   -0.000236148    0.000090685
 -------------------------------------------------------------------
 Cartesian Forces:  Max     0.001407827 RMS     0.000472415

 GradGradGradGradGradGradGradGradGradGradGradGradGradGradGradGradGradGrad
 Berny optimization.
 Using GEDIIS/GDIIS optimizer.
 FormGI is forming the generalized inverse of G from B-inverse, IUseBI=4.
 Internal  Forces:  Max     0.000540798 RMS     0.000235656
 Search for a local minimum.
 Step number   3 out of a maximum of   66
 All quantities printed in internal units (Hartrees-Bohrs-Radians)
 Mixed Optimization -- En-DIIS/RFO-DIIS
 Update second derivatives using D2CorX and points    1    2    3
 DE= -1.74D-04 DEPred=-1.71D-04 R= 1.02D+00
 TightC=F SS=  1.41D+00  RLast= 6.79D-02 DXNew= 7.0568D-01 2.0377D-01
 Trust test= 1.02D+00 RLast= 6.79D-02 DXMaxT set to 4.20D-01
 ITU=  1  1  0
 Use linear search instead of GDIIS.
     Eigenvalues ---    0.01655   0.01870   0.02183   0.02333   0.02369
     Eigenvalues ---    0.02713   0.02771   0.02834   0.03010   0.04286
     Eigenvalues ---    0.13904   0.15989   0.15992   0.15999   0.16020
     Eigenvalues ---    0.16369   0.19755   0.20350   0.21866   0.22320
     Eigenvalues ---    0.34753   0.35375   0.36409   0.36410   0.36488
     Eigenvalues ---    0.36496   0.36695   0.36698   0.45524   0.49257
     Eigenvalues ---    0.58258   0.60119   0.61861
 RFO step:  Lambda=-3.38322149D-05 EMin= 1.65459654D-02
 Quartic linear search produced a step of  0.01548.
 Iteration  1 RMS(Cart)=  0.00324516 RMS(Int)=  0.00001320
 Iteration  2 RMS(Cart)=  0.00001220 RMS(Int)=  0.00000477
 Iteration  3 RMS(Cart)=  0.00000000 RMS(Int)=  0.00000477
 ClnCor:  largest displacement from symmetrization is 1.39D-08 for atom     6.
 Variable       Old X    -DE/DX   Delta X   Delta X   Delta X     New X
                                 (Linear)    (Quad)   (Total)
    R1        2.77242   0.00001   0.00001  -0.00006  -0.00004   2.77238
    R2        2.50723   0.00050  -0.00008   0.00018   0.00010   2.50733
    R3        2.02938   0.00011   0.00001   0.00035   0.00036   2.02974
    R4        2.48670  -0.00052  -0.00001  -0.00091  -0.00092   2.48579
    R5        2.02723   0.00024   0.00000   0.00062   0.00062   2.02786
    R6        2.65059   0.00021   0.00008   0.00146   0.00154   2.65214
    R7        2.02132   0.00008  -0.00003   0.00002  -0.00001   2.02131
    R8        2.48670  -0.00052  -0.00001  -0.00091  -0.00092   2.48579
    R9        2.65059   0.00021   0.00008   0.00146   0.00154   2.65214
   R10        2.02132   0.00008  -0.00003   0.00002  -0.00001   2.02131
   R11        2.77242   0.00001   0.00001  -0.00006  -0.00004   2.77238
   R12        2.02723   0.00024   0.00000   0.00062   0.00062   2.02786
   R13        2.02938   0.00011   0.00001   0.00035   0.00036   2.02974
    A1        2.19209  -0.00019  -0.00003  -0.00092  -0.00095   2.19114
    A2        2.02084  -0.00013   0.00002  -0.00104  -0.00103   2.01981
    A3        2.06972   0.00031   0.00001   0.00176   0.00177   2.07148
    A4        2.18328   0.00018   0.00006   0.00179   0.00185   2.18513
    A5        2.04645   0.00001  -0.00007  -0.00052  -0.00060   2.04585
    A6        2.05336  -0.00019   0.00001  -0.00119  -0.00119   2.05218
    A7        2.16434   0.00026   0.00005   0.00281   0.00285   2.16720
    A8        2.15112   0.00029   0.00019   0.00260   0.00279   2.15390
    A9        1.96708  -0.00054  -0.00025  -0.00522  -0.00548   1.96160
   A10        2.16434   0.00026   0.00005   0.00281   0.00285   2.16720
   A11        2.15112   0.00029   0.00019   0.00260   0.00279   2.15390
   A12        1.96708  -0.00054  -0.00025  -0.00522  -0.00548   1.96160
   A13        2.18328   0.00018   0.00006   0.00179   0.00185   2.18513
   A14        2.05336  -0.00019   0.00001  -0.00119  -0.00119   2.05218
   A15        2.04645   0.00001  -0.00007  -0.00052  -0.00060   2.04585
   A16        2.19209  -0.00019  -0.00003  -0.00092  -0.00095   2.19114
   A17        2.06972   0.00031   0.00001   0.00176   0.00177   2.07148
   A18        2.02084  -0.00013   0.00002  -0.00104  -0.00103   2.01981
   A19        2.04222  -0.00032  -0.00019  -0.00110  -0.00131   2.04092
    D1       -0.51548  -0.00003   0.00003  -0.00045  -0.00042  -0.51590
    D2        2.64052  -0.00023   0.00024  -0.00711  -0.00687   2.63365
    D3        2.66195   0.00015  -0.00013   0.00617   0.00604   2.66799
    D4       -0.46523  -0.00005   0.00009  -0.00050  -0.00041  -0.46564
    D5        0.00000   0.00000   0.00000   0.00000   0.00000   0.00000
    D6       -3.10484   0.00019  -0.00016   0.00684   0.00669  -3.09816
    D7        3.10484  -0.00019   0.00016  -0.00684  -0.00669   3.09816
    D8        0.00000   0.00000   0.00000   0.00000   0.00000   0.00000
    D9       -0.04551   0.00005  -0.00010   0.00286   0.00277  -0.04274
   D10        3.13754  -0.00017   0.00029  -0.00307  -0.00279   3.13475
   D11        3.08162   0.00025  -0.00031   0.00955   0.00925   3.09086
   D12       -0.01852   0.00003   0.00007   0.00362   0.00369  -0.01483
   D13        1.00352  -0.00032   0.00001  -0.00813  -0.00811   0.99541
   D14       -2.17565  -0.00010  -0.00033  -0.00261  -0.00295  -2.17859
   D15        0.04551  -0.00005   0.00010  -0.00286  -0.00277   0.04274
   D16       -3.08162  -0.00025   0.00031  -0.00955  -0.00925  -3.09086
   D17       -3.13754   0.00017  -0.00029   0.00307   0.00279  -3.13475
   D18        0.01852  -0.00003  -0.00007  -0.00362  -0.00369   0.01483
   D19       -1.00352   0.00032  -0.00001   0.00813   0.00811  -0.99541
   D20        2.17565   0.00010   0.00033   0.00261   0.00295   2.17859
   D21        0.51548   0.00003  -0.00003   0.00045   0.00042   0.51590
   D22       -2.66195  -0.00015   0.00013  -0.00617  -0.00604  -2.66799
   D23       -2.64052   0.00023  -0.00024   0.00711   0.00687  -2.63365
   D24        0.46523   0.00005  -0.00009   0.00050   0.00041   0.46564
         Item               Value     Threshold  Converged?
 Maximum Force            0.000541     0.000450     NO 
 RMS     Force            0.000236     0.000300     YES
 Maximum Displacement     0.010108     0.001800     NO 
 RMS     Displacement     0.003244     0.001200     NO 
 Predicted change in Energy=-1.696683D-05
 GradGradGradGradGradGradGradGradGradGradGradGradGradGradGradGradGradGrad

                          Input orientation:                          
 ---------------------------------------------------------------------
 Center     Atomic      Atomic             Coordinates (Angstroms)
 Number     Number       Type             X           Y           Z
 ---------------------------------------------------------------------
      1          6           0       -1.428403    0.663412    0.130769
      2          6           0       -0.295606    1.516250   -0.245751
      3          6           0        0.972898    1.196228   -0.108583
      4          6           0        0.972898   -1.196228   -0.108583
      5          6           0       -0.295606   -1.516250   -0.245751
      6          6           0       -1.428403   -0.663412    0.130769
      7          1           0       -2.334616    1.179005    0.388863
      8          1           0       -0.522971    2.480009   -0.659282
      9          1           0       -0.522971   -2.480009   -0.659282
     10          1           0       -2.334616   -1.179005    0.388863
     11          8           0        1.426111    0.000000    0.468747
     12          1           0        1.777162   -1.838884   -0.398860
     13          1           0        1.777162    1.838884   -0.398860
 ---------------------------------------------------------------------
                    Distance matrix (angstroms):
                    1          2          3          4          5
     1  C    0.000000
     2  C    1.467082   0.000000
     3  C    2.471322   1.315421   0.000000
     4  C    3.046605   2.997575   2.392456   0.000000
     5  C    2.485141   3.032500   2.997575   1.315421   0.000000
     6  C    1.326825   2.485141   3.046605   2.471322   1.467082
     7  H    1.074090   2.161951   3.344757   4.102296   3.438706
     8  H    2.178075   1.073095   2.046701   4.006945   4.024027
     9  H    3.365276   4.024027   4.006945   2.046701   1.073095
    10  H    2.069380   3.438706   4.102296   3.344757   2.161951
    11  O    2.950016   2.402880   1.403450   1.403450   2.402880
    12  H    4.100932   3.946738   3.153253   1.069630   2.103308
    13  H    3.455126   2.103308   1.069630   3.153253   3.946738
                    6          7          8          9         10
     6  C    0.000000
     7  H    2.069380   0.000000
     8  H    3.365276   2.464402   0.000000
     9  H    2.178075   4.215335   4.960018   0.000000
    10  H    1.074090   2.358010   4.215335   2.464402   0.000000
    11  O    2.950016   3.942017   3.349897   3.349897   3.942017
    12  H    3.455126   5.160900   4.900130   2.401973   4.238239
    13  H    4.100932   4.238239   2.401973   4.900130   5.160900
                   11         12         13
    11  O    0.000000
    12  H    2.063365   0.000000
    13  H    2.063365   3.677768   0.000000
 Stoichiometry    C6H6O
 Framework group  CS[SG(O),X(C6H6)]
 Deg. of freedom    17
 Full point group                 CS      NOp   2
 Largest Abelian subgroup         CS      NOp   2
 Largest concise Abelian subgroup CS      NOp   2
                         Standard orientation:                         
 ---------------------------------------------------------------------
 Center     Atomic      Atomic             Coordinates (Angstroms)
 Number     Number       Type             X           Y           Z
 ---------------------------------------------------------------------
      1          6           0       -0.322775   -1.402902    0.663412
      2          6           0       -0.322775   -0.209169    1.516250
      3          6           0        0.207495    0.951318    1.196228
      4          6           0        0.207495    0.951318   -1.196228
      5          6           0       -0.322775   -0.209169   -1.516250
      6          6           0       -0.322775   -1.402902   -0.663412
      7          1           0       -0.363689   -2.344263    1.179005
      8          1           0       -0.786911   -0.294495    2.480009
      9          1           0       -0.786911   -0.294495   -2.480009
     10          1           0       -0.363689   -2.344263   -1.179005
     11          8           0        0.898305    1.199298    0.000000
     12          1           0        0.185712    1.806085   -1.838884
     13          1           0        0.185712    1.806085    1.838884
 ---------------------------------------------------------------------
 Rotational constants (GHZ):      3.9121792      3.8491597      2.0518070
 Standard basis: 3-21G (6D, 7F)
 There are    40 symmetry adapted cartesian basis functions of A'  symmetry.
 There are    35 symmetry adapted cartesian basis functions of A"  symmetry.
 There are    40 symmetry adapted basis functions of A'  symmetry.
 There are    35 symmetry adapted basis functions of A"  symmetry.
    75 basis functions,   123 primitive gaussians,    75 cartesian basis functions
    25 alpha electrons       25 beta electrons
       nuclear repulsion energy       275.2695599604 Hartrees.
 NAtoms=   13 NActive=   13 NUniq=    7 SFac= 3.45D+00 NAtFMM=   60 NAOKFM=F Big=F
 Integral buffers will be    131072 words long.
 Raffenetti 1 integral format.
 Two-electron integral symmetry is turned on.
 One-electron integrals computed using PRISM.
 NBasis=    75 RedAO= T EigKep=  2.70D-03  NBF=    40    35
 NBsUse=    75 1.00D-06 EigRej= -1.00D+00 NBFU=    40    35
 Initial guess from the checkpoint file:  "/tmp/Gau-8677.chk"
 B after Tr=     0.000000    0.000000    0.000000
         Rot=    1.000000    0.000000    0.000000   -0.000243 Ang=  -0.03 deg.
 Initial guess orbital symmetries:
       Occupied  (A') (A") (A') (A") (A') (A") (A') (A') (A') (A")
                 (A') (A") (A') (A") (A') (A") (A') (A') (A") (A')
                 (A") (A') (A') (A") (A')
       Virtual   (A') (A') (A') (A') (A') (A') (A') (A') (A') (A')
                 (A') (A') (A') (A') (A') (A') (A') (A') (A') (A')
                 (A') (A') (A') (A') (A') (A") (A") (A") (A") (A")
                 (A") (A") (A") (A") (A") (A") (A") (A") (A") (A")
                 (A") (A") (A") (A") (A") (A") (A") (A") (A") (A")
 Keep R1 ints in memory in symmetry-blocked form, NReq=6138275.
 Requested convergence on RMS density matrix=1.00D-08 within 128 cycles.
 Requested convergence on MAX density matrix=1.00D-06.
 Requested convergence on             energy=1.00D-06.
 No special actions if energy rises.
 SCF Done:  E(RHF) =  -303.790980641     A.U. after   10 cycles
            NFock= 10  Conv=0.19D-08     -V/T= 2.0025
 Calling FoFJK, ICntrl=      2127 FMM=F ISym2X=1 I1Cent= 0 IOpClX= 0 NMat=1 NMatS=1 NMatT=0.
 ***** Axes restored to original set *****
 -------------------------------------------------------------------
 Center     Atomic                   Forces (Hartrees/Bohr)
 Number     Number              X              Y              Z
 -------------------------------------------------------------------
      1        6          -0.000152798    0.000199875   -0.000137054
      2        6           0.000131301   -0.000081771   -0.000000338
      3        6           0.000010647   -0.000260318    0.000161523
      4        6           0.000010647    0.000260318    0.000161523
      5        6           0.000131301    0.000081771   -0.000000338
      6        6          -0.000152798   -0.000199875   -0.000137054
      7        1           0.000077425   -0.000007429    0.000065184
      8        1           0.000040250    0.000056378    0.000057500
      9        1           0.000040250   -0.000056378    0.000057500
     10        1           0.000077425    0.000007429    0.000065184
     11        8          -0.000075002    0.000000000   -0.000287093
     12        1          -0.000069323   -0.000200735   -0.000003268
     13        1          -0.000069323    0.000200735   -0.000003268
 -------------------------------------------------------------------
 Cartesian Forces:  Max     0.000287093 RMS     0.000125579

 GradGradGradGradGradGradGradGradGradGradGradGradGradGradGradGradGradGrad
 Berny optimization.
 Using GEDIIS/GDIIS optimizer.
 FormGI is forming the generalized inverse of G from B-inverse, IUseBI=4.
 Internal  Forces:  Max     0.000190435 RMS     0.000083017
 Search for a local minimum.
 Step number   4 out of a maximum of   66
 All quantities printed in internal units (Hartrees-Bohrs-Radians)
 Mixed Optimization -- En-DIIS/RFO-DIIS
 Swapping is turned off.
 Update second derivatives using D2CorX and points    1    2    3    4
 DE= -1.44D-05 DEPred=-1.70D-05 R= 8.51D-01
 TightC=F SS=  1.41D+00  RLast= 2.75D-02 DXNew= 7.0568D-01 8.2554D-02
 Trust test= 8.51D-01 RLast= 2.75D-02 DXMaxT set to 4.20D-01
 ITU=  1  1  1  0
     Eigenvalues ---    0.01651   0.01868   0.02185   0.02334   0.02355
     Eigenvalues ---    0.02409   0.02836   0.03010   0.03153   0.04132
     Eigenvalues ---    0.15548   0.15985   0.15994   0.16000   0.16005
     Eigenvalues ---    0.16931   0.20267   0.20361   0.21862   0.21996
     Eigenvalues ---    0.34750   0.35345   0.36409   0.36462   0.36488
     Eigenvalues ---    0.36536   0.36664   0.36695   0.45694   0.49260
     Eigenvalues ---    0.58260   0.60120   0.61220
 En-DIIS/RFO-DIIS IScMMF=        0 using points:     4    3
 RFO step:  Lambda=-1.11437425D-06.
 DidBck=F Rises=F RFO-DIIS coefs:    0.87062    0.12938
 Iteration  1 RMS(Cart)=  0.00160321 RMS(Int)=  0.00000221
 Iteration  2 RMS(Cart)=  0.00000251 RMS(Int)=  0.00000063
 Iteration  3 RMS(Cart)=  0.00000000 RMS(Int)=  0.00000063
 ClnCor:  largest displacement from symmetrization is 3.30D-09 for atom    10.
 Variable       Old X    -DE/DX   Delta X   Delta X   Delta X     New X
                                 (Linear)    (Quad)   (Total)
    R1        2.77238   0.00003   0.00001   0.00005   0.00006   2.77244
    R2        2.50733   0.00017  -0.00001   0.00028   0.00027   2.50761
    R3        2.02974  -0.00005  -0.00005  -0.00004  -0.00009   2.02965
    R4        2.48579  -0.00009   0.00012  -0.00034  -0.00022   2.48557
    R5        2.02786   0.00002  -0.00008   0.00020   0.00012   2.02797
    R6        2.65214  -0.00013  -0.00020   0.00010  -0.00010   2.65203
    R7        2.02131   0.00007   0.00000   0.00017   0.00017   2.02148
    R8        2.48579  -0.00009   0.00012  -0.00034  -0.00022   2.48557
    R9        2.65214  -0.00013  -0.00020   0.00010  -0.00010   2.65203
   R10        2.02131   0.00007   0.00000   0.00017   0.00017   2.02148
   R11        2.77238   0.00003   0.00001   0.00005   0.00006   2.77244
   R12        2.02786   0.00002  -0.00008   0.00020   0.00012   2.02797
   R13        2.02974  -0.00005  -0.00005  -0.00004  -0.00009   2.02965
    A1        2.19114  -0.00005   0.00012  -0.00008   0.00004   2.19118
    A2        2.01981   0.00000   0.00013  -0.00036  -0.00022   2.01959
    A3        2.07148   0.00005  -0.00023   0.00051   0.00028   2.07177
    A4        2.18513   0.00006  -0.00024   0.00104   0.00080   2.18593
    A5        2.04585   0.00002   0.00008  -0.00019  -0.00011   2.04574
    A6        2.05218  -0.00007   0.00015  -0.00085  -0.00069   2.05148
    A7        2.16720   0.00001  -0.00037   0.00109   0.00072   2.16791
    A8        2.15390  -0.00019  -0.00036  -0.00063  -0.00099   2.15291
    A9        1.96160   0.00018   0.00071  -0.00047   0.00023   1.96184
   A10        2.16720   0.00001  -0.00037   0.00109   0.00072   2.16791
   A11        2.15390  -0.00019  -0.00036  -0.00063  -0.00099   2.15291
   A12        1.96160   0.00018   0.00071  -0.00047   0.00023   1.96184
   A13        2.18513   0.00006  -0.00024   0.00104   0.00080   2.18593
   A14        2.05218  -0.00007   0.00015  -0.00085  -0.00069   2.05148
   A15        2.04585   0.00002   0.00008  -0.00019  -0.00011   2.04574
   A16        2.19114  -0.00005   0.00012  -0.00008   0.00004   2.19118
   A17        2.07148   0.00005  -0.00023   0.00051   0.00028   2.07177
   A18        2.01981   0.00000   0.00013  -0.00036  -0.00022   2.01959
   A19        2.04092   0.00011   0.00017   0.00079   0.00095   2.04187
    D1       -0.51590   0.00009   0.00005   0.00189   0.00194  -0.51396
    D2        2.63365   0.00012   0.00089   0.00203   0.00292   2.63657
    D3        2.66799  -0.00003  -0.00078  -0.00022  -0.00100   2.66698
    D4       -0.46564   0.00000   0.00005  -0.00008  -0.00002  -0.46567
    D5        0.00000   0.00000   0.00000   0.00000   0.00000   0.00000
    D6       -3.09816  -0.00012  -0.00086  -0.00214  -0.00301  -3.10117
    D7        3.09816   0.00012   0.00086   0.00214   0.00301   3.10117
    D8        0.00000   0.00000   0.00000   0.00000   0.00000   0.00000
    D9       -0.04274   0.00002  -0.00036   0.00014  -0.00022  -0.04296
   D10        3.13475   0.00004   0.00036   0.00085   0.00121   3.13596
   D11        3.09086  -0.00002  -0.00120   0.00000  -0.00120   3.08966
   D12       -0.01483   0.00001  -0.00048   0.00071   0.00023  -0.01460
   D13        0.99541  -0.00008   0.00105  -0.00394  -0.00289   0.99252
   D14       -2.17859  -0.00010   0.00038  -0.00459  -0.00421  -2.18280
   D15        0.04274  -0.00002   0.00036  -0.00014   0.00022   0.04296
   D16       -3.09086   0.00002   0.00120   0.00000   0.00120  -3.08966
   D17       -3.13475  -0.00004  -0.00036  -0.00085  -0.00121  -3.13596
   D18        0.01483  -0.00001   0.00048  -0.00071  -0.00023   0.01460
   D19       -0.99541   0.00008  -0.00105   0.00394   0.00289  -0.99252
   D20        2.17859   0.00010  -0.00038   0.00459   0.00421   2.18280
   D21        0.51590  -0.00009  -0.00005  -0.00189  -0.00194   0.51396
   D22       -2.66799   0.00003   0.00078   0.00022   0.00100  -2.66698
   D23       -2.63365  -0.00012  -0.00089  -0.00203  -0.00292  -2.63657
   D24        0.46564   0.00000  -0.00005   0.00008   0.00002   0.46567
         Item               Value     Threshold  Converged?
 Maximum Force            0.000190     0.000450     YES
 RMS     Force            0.000083     0.000300     YES
 Maximum Displacement     0.004520     0.001800     NO 
 RMS     Displacement     0.001603     0.001200     NO 
 Predicted change in Energy=-2.119047D-06
 GradGradGradGradGradGradGradGradGradGradGradGradGradGradGradGradGradGrad

                          Input orientation:                          
 ---------------------------------------------------------------------
 Center     Atomic      Atomic             Coordinates (Angstroms)
 Number     Number       Type             X           Y           Z
 ---------------------------------------------------------------------
      1          6           0       -1.428872    0.663484    0.129289
      2          6           0       -0.295581    1.516388   -0.245710
      3          6           0        0.972913    1.196531   -0.109171
      4          6           0        0.972913   -1.196531   -0.109171
      5          6           0       -0.295581   -1.516388   -0.245710
      6          6           0       -1.428872   -0.663484    0.129289
      7          1           0       -2.334473    1.179322    0.388845
      8          1           0       -0.522537    2.481276   -0.656985
      9          1           0       -0.522537   -2.481276   -0.656985
     10          1           0       -2.334473   -1.179322    0.388845
     11          8           0        1.427448    0.000000    0.466355
     12          1           0        1.776346   -1.841067   -0.397916
     13          1           0        1.776346    1.841067   -0.397916
 ---------------------------------------------------------------------
                    Distance matrix (angstroms):
                    1          2          3          4          5
     1  C    0.000000
     2  C    1.467113   0.000000
     3  C    2.471756   1.315306   0.000000
     4  C    3.047145   2.997942   2.393063   0.000000
     5  C    2.485321   3.032777   2.997942   1.315306   0.000000
     6  C    1.326968   2.485321   3.047145   2.471756   1.467113
     7  H    1.074043   2.161794   3.344715   4.102621   3.438981
     8  H    2.178081   1.073156   2.046226   4.007835   4.025168
     9  H    3.365886   4.025168   4.007835   2.046226   1.073156
    10  H    2.069641   3.438981   4.102621   3.344715   2.161794
    11  O    2.951676   2.403185   1.403396   1.403396   2.403185
    12  H    4.101725   3.948234   3.155294   1.069722   2.102728
    13  H    3.455152   2.102728   1.069722   3.155294   3.948234
                    6          7          8          9         10
     6  C    0.000000
     7  H    2.069641   0.000000
     8  H    3.365886   2.464134   0.000000
     9  H    2.178081   4.216260   4.962552   0.000000
    10  H    1.074043   2.358643   4.216260   2.464134   0.000000
    11  O    2.951676   3.943204   3.349786   3.349786   3.943204
    12  H    3.455152   5.161451   4.902513   2.400385   4.237420
    13  H    4.101725   4.237420   2.400385   4.902513   5.161451
                   11         12         13
    11  O    0.000000
    12  H    2.063546   0.000000
    13  H    2.063546   3.682134   0.000000
 Stoichiometry    C6H6O
 Framework group  CS[SG(O),X(C6H6)]
 Deg. of freedom    17
 Full point group                 CS      NOp   2
 Largest Abelian subgroup         CS      NOp   2
 Largest concise Abelian subgroup CS      NOp   2
                         Standard orientation:                         
 ---------------------------------------------------------------------
 Center     Atomic      Atomic             Coordinates (Angstroms)
 Number     Number       Type             X           Y           Z
 ---------------------------------------------------------------------
      1          6           0       -0.321777   -1.403642    0.663484
      2          6           0       -0.321777   -0.209920    1.516388
      3          6           0        0.206338    0.951465    1.196531
      4          6           0        0.206338    0.951465   -1.196531
      5          6           0       -0.321777   -0.209920   -1.516388
      6          6           0       -0.321777   -1.403642   -0.663484
      7          1           0       -0.359848   -2.344935    1.179322
      8          1           0       -0.783528   -0.296188    2.481276
      9          1           0       -0.783528   -0.296188   -2.481276
     10          1           0       -0.359848   -2.344935   -1.179322
     11          8           0        0.895517    1.202193    0.000000
     12          1           0        0.184602    1.804932   -1.841067
     13          1           0        0.184602    1.804932    1.841067
 ---------------------------------------------------------------------
 Rotational constants (GHZ):      3.9118242      3.8481027      2.0506030
 Standard basis: 3-21G (6D, 7F)
 There are    40 symmetry adapted cartesian basis functions of A'  symmetry.
 There are    35 symmetry adapted cartesian basis functions of A"  symmetry.
 There are    40 symmetry adapted basis functions of A'  symmetry.
 There are    35 symmetry adapted basis functions of A"  symmetry.
    75 basis functions,   123 primitive gaussians,    75 cartesian basis functions
    25 alpha electrons       25 beta electrons
       nuclear repulsion energy       275.2450220659 Hartrees.
 NAtoms=   13 NActive=   13 NUniq=    7 SFac= 3.45D+00 NAtFMM=   60 NAOKFM=F Big=F
 Integral buffers will be    131072 words long.
 Raffenetti 1 integral format.
 Two-electron integral symmetry is turned on.
 One-electron integrals computed using PRISM.
 NBasis=    75 RedAO= T EigKep=  2.70D-03  NBF=    40    35
 NBsUse=    75 1.00D-06 EigRej= -1.00D+00 NBFU=    40    35
 Initial guess from the checkpoint file:  "/tmp/Gau-8677.chk"
 B after Tr=     0.000000    0.000000    0.000000
         Rot=    1.000000    0.000000    0.000000   -0.000751 Ang=  -0.09 deg.
 Initial guess orbital symmetries:
       Occupied  (A') (A") (A') (A") (A') (A") (A') (A') (A') (A")
[...]
   A14        2.05014   0.00003   0.00007   0.00006   0.00013   2.05027
   A15        2.04526   0.00001  -0.00001   0.00000  -0.00001   2.04525
   A16        2.19150   0.00002   0.00011   0.00003   0.00014   2.19164
   A17        2.07185  -0.00003  -0.00014   0.00000  -0.00014   2.07171
   A18        2.01924   0.00000   0.00003  -0.00003   0.00000   2.01923
   A19        2.04621   0.00005   0.00046   0.00014   0.00060   2.04681
    D1       -0.50969   0.00000   0.00019  -0.00006   0.00013  -0.50956
    D2        2.64239   0.00000   0.00025   0.00016   0.00041   2.64281
    D3        2.66957   0.00001   0.00047   0.00004   0.00051   2.67008
    D4       -0.46153   0.00001   0.00053   0.00026   0.00079  -0.46074
    D5        0.00000   0.00000   0.00000   0.00000   0.00000   0.00000
    D6       -3.10289   0.00001   0.00028   0.00010   0.00038  -3.10250
    D7        3.10289  -0.00001  -0.00028  -0.00010  -0.00038   3.10250
    D8        0.00000   0.00000   0.00000   0.00000   0.00000   0.00000
    D9       -0.04034   0.00002   0.00027   0.00011   0.00038  -0.03996
   D10        3.13839   0.00001   0.00002   0.00032   0.00035   3.13874
   D11        3.09073   0.00001   0.00021  -0.00011   0.00009   3.09083
   D12       -0.01372   0.00000  -0.00004   0.00010   0.00006  -0.01366
   D13        0.97938   0.00000  -0.00080  -0.00004  -0.00085   0.97853
   D14       -2.19579   0.00001  -0.00058  -0.00023  -0.00081  -2.19660
   D15        0.04034  -0.00002  -0.00027  -0.00011  -0.00038   0.03996
   D16       -3.09073  -0.00001  -0.00021   0.00011  -0.00009  -3.09083
   D17       -3.13839  -0.00001  -0.00002  -0.00032  -0.00035  -3.13874
   D18        0.01372   0.00000   0.00004  -0.00010  -0.00006   0.01366
   D19       -0.97938   0.00000   0.00080   0.00004   0.00085  -0.97853
   D20        2.19579  -0.00001   0.00058   0.00023   0.00081   2.19660
   D21        0.50969   0.00000  -0.00019   0.00006  -0.00013   0.50956
   D22       -2.66957  -0.00001  -0.00047  -0.00004  -0.00051  -2.67008
   D23       -2.64239   0.00000  -0.00025  -0.00016  -0.00041  -2.64281
   D24        0.46153  -0.00001  -0.00053  -0.00026  -0.00079   0.46074
         Item               Value     Threshold  Converged?
 Maximum Force            0.000071     0.000450     YES
 RMS     Force            0.000023     0.000300     YES
 Maximum Displacement     0.001466     0.001800     YES
 RMS     Displacement     0.000336     0.001200     YES
 Predicted change in Energy=-6.694137D-08
 Optimization completed.
    -- Stationary point found.
                           ----------------------------
                           !   Optimized Parameters   !
                           ! (Angstroms and Degrees)  !
 --------------------------                            --------------------------
 ! Name  Definition              Value          Derivative Info.                !
 --------------------------------------------------------------------------------
 ! R1    R(1,2)                  1.4673         -DE/DX =    0.0                 !
 ! R2    R(1,6)                  1.3268         -DE/DX =   -0.0001              !
 ! R3    R(1,7)                  1.074          -DE/DX =    0.0                 !
 ! R4    R(2,3)                  1.3153         -DE/DX =    0.0                 !
 ! R5    R(2,8)                  1.0732         -DE/DX =    0.0                 !
 ! R6    R(3,11)                 1.4027         -DE/DX =   -0.0001              !
 ! R7    R(3,13)                 1.0698         -DE/DX =    0.0                 !
 ! R8    R(4,5)                  1.3153         -DE/DX =    0.0                 !
 ! R9    R(4,11)                 1.4027         -DE/DX =   -0.0001              !
 ! R10   R(4,12)                 1.0698         -DE/DX =    0.0                 !
 ! R11   R(5,6)                  1.4673         -DE/DX =    0.0                 !
 ! R12   R(5,9)                  1.0732         -DE/DX =    0.0                 !
 ! R13   R(6,10)                 1.074          -DE/DX =    0.0                 !
 ! A1    A(2,1,6)              125.5638         -DE/DX =    0.0                 !
 ! A2    A(2,1,7)              115.6937         -DE/DX =    0.0                 !
 ! A3    A(6,1,7)              118.7085         -DE/DX =    0.0                 !
 ! A4    A(1,2,3)              125.3485         -DE/DX =    0.0                 !
 ! A5    A(1,2,8)              117.1846         -DE/DX =    0.0                 !
 ! A6    A(3,2,8)              117.4643         -DE/DX =    0.0                 !
 ! A7    A(2,3,11)             124.3933         -DE/DX =    0.0                 !
 ! A8    A(2,3,13)             123.2431         -DE/DX =    0.0                 !
 ! A9    A(11,3,13)            112.3342         -DE/DX =    0.0                 !
 ! A10   A(5,4,11)             124.3933         -DE/DX =    0.0                 !
 ! A11   A(5,4,12)             123.2431         -DE/DX =    0.0                 !
 ! A12   A(11,4,12)            112.3342         -DE/DX =    0.0                 !
 ! A13   A(4,5,6)              125.3485         -DE/DX =    0.0                 !
 ! A14   A(4,5,9)              117.4643         -DE/DX =    0.0                 !
 ! A15   A(6,5,9)              117.1846         -DE/DX =    0.0                 !
 ! A16   A(1,6,5)              125.5638         -DE/DX =    0.0                 !
 ! A17   A(1,6,10)             118.7085         -DE/DX =    0.0                 !
 ! A18   A(5,6,10)             115.6937         -DE/DX =    0.0                 !
 ! A19   A(3,11,4)             117.2392         -DE/DX =    0.0001              !
 ! D1    D(6,1,2,3)            -29.2033         -DE/DX =    0.0                 !
 ! D2    D(6,1,2,8)            151.398          -DE/DX =    0.0                 !
 ! D3    D(7,1,2,3)            152.9552         -DE/DX =    0.0                 !
 ! D4    D(7,1,2,8)            -26.4435         -DE/DX =    0.0                 !
 ! D5    D(2,1,6,5)              0.0            -DE/DX =    0.0                 !
 ! D6    D(2,1,6,10)          -177.7822         -DE/DX =    0.0                 !
 ! D7    D(7,1,6,5)            177.7822         -DE/DX =    0.0                 !
 ! D8    D(7,1,6,10)             0.0            -DE/DX =    0.0                 !
 ! D9    D(1,2,3,11)            -2.3112         -DE/DX =    0.0                 !
 ! D10   D(1,2,3,13)           179.8164         -DE/DX =    0.0                 !
 ! D11   D(8,2,3,11)           177.086          -DE/DX =    0.0                 !
 ! D12   D(8,2,3,13)            -0.7864         -DE/DX =    0.0                 !
 ! D13   D(2,3,11,4)            56.1142         -DE/DX =    0.0                 !
 ! D14   D(13,3,11,4)         -125.8094         -DE/DX =    0.0                 !
 ! D15   D(11,4,5,6)             2.3112         -DE/DX =    0.0                 !
 ! D16   D(11,4,5,9)          -177.086          -DE/DX =    0.0                 !
 ! D17   D(12,4,5,6)          -179.8164         -DE/DX =    0.0                 !
 ! D18   D(12,4,5,9)             0.7864         -DE/DX =    0.0                 !
 ! D19   D(5,4,11,3)           -56.1142         -DE/DX =    0.0                 !
 ! D20   D(12,4,11,3)          125.8094         -DE/DX =    0.0                 !
 ! D21   D(4,5,6,1)             29.2033         -DE/DX =    0.0                 !
 ! D22   D(4,5,6,10)          -152.9552         -DE/DX =    0.0                 !
 ! D23   D(9,5,6,1)           -151.398          -DE/DX =    0.0                 !
 ! D24   D(9,5,6,10)            26.4435         -DE/DX =    0.0                 !
 --------------------------------------------------------------------------------
 GradGradGradGradGradGradGradGradGradGradGradGradGradGradGradGradGradGrad

                          Input orientation:                          
 ---------------------------------------------------------------------
 Center     Atomic      Atomic             Coordinates (Angstroms)
 Number     Number       Type             X           Y           Z
 ---------------------------------------------------------------------
      1          6           0       -1.429683    0.663387    0.127617
      2          6           0       -0.295604    1.516760   -0.244507
      3          6           0        0.973278    1.197559   -0.109958
      4          6           0        0.973278   -1.197559   -0.109958
      5          6           0       -0.295604   -1.516760   -0.244507
      6          6           0       -1.429683   -0.663387    0.127617
      7          1           0       -2.335394    1.179281    0.386444
      8          1           0       -0.522297    2.483702   -0.651095
      9          1           0       -0.522297   -2.483702   -0.651095
     10          1           0       -2.335394   -1.179281    0.386444
     11          8           0        1.433211    0.000000    0.457485
     12          1           0        1.774616   -1.846086   -0.395714
     13          1           0        1.774616    1.846086   -0.395714
 ---------------------------------------------------------------------
                    Distance matrix (angstroms):
                    1          2          3          4          5
     1  C    0.000000
     2  C    1.467261   0.000000
     3  C    2.473055   1.315315   0.000000
     4  C    3.048570   2.999282   2.395119   0.000000
     5  C    2.485487   3.033519   2.999282   1.315315   0.000000
     6  C    1.326773   2.485487   3.048570   2.473055   1.467261
     7  H    1.073989   2.161651   3.345753   4.104034   3.439110
     8  H    2.177910   1.073165   2.045419   4.010145   4.027456
     9  H    3.366587   4.027456   4.010145   2.045419   1.073165
    10  H    2.069475   3.439110   4.104034   3.345753   2.161651
    11  O    2.957203   2.404611   1.402739   1.402739   2.404611
    12  H    4.103518   3.951886   3.160313   1.069760   2.101697
    13  H    3.455457   2.101697   1.069760   3.160313   3.951886
                    6          7          8          9         10
     6  C    0.000000
     7  H    2.069475   0.000000
     8  H    3.366587   2.462788   0.000000
     9  H    2.177910   4.216782   4.967405   0.000000
    10  H    1.073989   2.358562   4.216782   2.462788   0.000000
    11  O    2.957203   3.949447   3.349886   3.349886   3.949447
    12  H    3.455457   5.163022   4.907963   2.397412   4.236577
    13  H    4.103518   4.236577   2.397412   4.907963   5.163022
                   11         12         13
    11  O    0.000000
    12  H    2.062169   0.000000
    13  H    2.062169   3.692172   0.000000
 Stoichiometry    C6H6O
 Framework group  CS[SG(O),X(C6H6)]
 Deg. of freedom    17
 Full point group                 CS      NOp   2
 Largest Abelian subgroup         CS      NOp   2
 Largest concise Abelian subgroup CS      NOp   2
                         Standard orientation:                         
 ---------------------------------------------------------------------
 Center     Atomic      Atomic             Coordinates (Angstroms)
 Number     Number       Type             X           Y           Z
 ---------------------------------------------------------------------
      1          6           0       -0.318920   -1.405832    0.663387
      2          6           0       -0.318920   -0.212262    1.516760
      3          6           0        0.204527    0.951426    1.197559
      4          6           0        0.204527    0.951426   -1.197559
      5          6           0       -0.318920   -0.212262   -1.516760
      6          6           0       -0.318920   -1.405832   -0.663387
      7          1           0       -0.355372   -2.347095    1.179281
      8          1           0       -0.775920   -0.300892    2.483702
      9          1           0       -0.775920   -0.300892   -2.483702
     10          1           0       -0.355372   -2.347095   -1.179281
     11          8           0        0.887081    1.211520    0.000000
     12          1           0        0.182851    1.801914   -1.846086
     13          1           0        0.182851    1.801914    1.846086
 ---------------------------------------------------------------------
 Rotational constants (GHZ):      3.9124900      3.8435365      2.0467270

 **********************************************************************

            Population analysis using the SCF density.

 **********************************************************************

 Orbital symmetries:
       Occupied  (A') (A") (A') (A") (A') (A") (A') (A') (A') (A")
                 (A') (A") (A') (A") (A') (A") (A') (A') (A") (A')
                 (A") (A') (A') (A") (A')
       Virtual   (A") (A') (A') (A") (A") (A') (A') (A") (A') (A")
                 (A") (A') (A") (A') (A") (A") (A') (A') (A') (A")
                 (A') (A") (A') (A') (A") (A') (A") (A') (A") (A")
                 (A") (A') (A") (A') (A") (A") (A') (A') (A') (A")
                 (A") (A") (A') (A') (A') (A") (A') (A") (A") (A')
 The electronic state is 1-A'.
 Alpha  occ. eigenvalues --  -20.48267 -11.24268 -11.24221 -11.18285 -11.18281
 Alpha  occ. eigenvalues --  -11.17742 -11.17725  -1.40027  -1.10938  -1.07347
 Alpha  occ. eigenvalues --   -0.97465  -0.88367  -0.75507  -0.75161  -0.72021
 Alpha  occ. eigenvalues --   -0.64774  -0.63423  -0.59996  -0.58770  -0.55583
 Alpha  occ. eigenvalues --   -0.49787  -0.47489  -0.43868  -0.39184  -0.29876
 Alpha virt. eigenvalues --    0.10774   0.20549   0.26434   0.28369   0.30482
 Alpha virt. eigenvalues --    0.32382   0.33156   0.36764   0.36915   0.37498
 Alpha virt. eigenvalues --    0.48976   0.53822   0.55216   0.63406   0.70230
 Alpha virt. eigenvalues --    0.74891   0.86427   0.92119   0.93399   0.93595
 Alpha virt. eigenvalues --    0.96947   1.01431   1.01727   1.08306   1.08460
 Alpha virt. eigenvalues --    1.10522   1.11695   1.12751   1.15395   1.18672
 Alpha virt. eigenvalues --    1.28741   1.32510   1.33112   1.39951   1.41293
 Alpha virt. eigenvalues --    1.43755   1.46093   1.54839   1.65543   1.66362
 Alpha virt. eigenvalues --    1.70460   1.73082   1.74708   1.93684   2.05008
 Alpha virt. eigenvalues --    2.14525   2.14712   2.35529   2.40384   3.55124
          Condensed to atoms (all electrons):
               1          2          3          4          5          6
     1  C    5.167085   0.335637  -0.097950   0.005091  -0.096069   0.565698
     2  C    0.335637   5.446664   0.437938  -0.007331   0.006760  -0.096069
     3  C   -0.097950   0.437938   4.915803  -0.060494  -0.007331   0.005091
     4  C    0.005091  -0.007331  -0.060494   4.915803   0.437938  -0.097950
     5  C   -0.096069   0.006760  -0.007331   0.437938   5.446664   0.335637
     6  C    0.565698  -0.096069   0.005091  -0.097950   0.335637   5.167085
     7  H    0.399937  -0.036848   0.002031  -0.000031   0.002444  -0.039778
     8  H   -0.028877   0.382066  -0.029077   0.000078  -0.000074   0.001717
     9  H    0.001717  -0.000074   0.000078  -0.029077   0.382066  -0.028877
    10  H   -0.039778   0.002444  -0.000031   0.002031  -0.036848   0.399937
    11  O    0.000807  -0.074321   0.280136   0.280136  -0.074321   0.000807
    12  H   -0.000029  -0.000484   0.002852   0.397432  -0.072229   0.002362
    13  H    0.002362  -0.072229   0.397432   0.002852  -0.000484  -0.000029
               7          8          9         10         11         12
     1  C    0.399937  -0.028877   0.001717  -0.039778   0.000807  -0.000029
     2  C   -0.036848   0.382066  -0.000074   0.002444  -0.074321  -0.000484
     3  C    0.002031  -0.029077   0.000078  -0.000031   0.280136   0.002852
     4  C   -0.000031   0.000078  -0.029077   0.002031   0.280136   0.397432
     5  C    0.002444  -0.000074   0.382066  -0.036848  -0.074321  -0.072229
     6  C   -0.039778   0.001717  -0.028877   0.399937   0.000807   0.002362
     7  H    0.436805  -0.000481  -0.000038  -0.002053   0.000045   0.000002
     8  H   -0.000481   0.429017   0.000002  -0.000038   0.001216   0.000006
     9  H   -0.000038   0.000002   0.429017  -0.000481   0.001216   0.000745
    10  H   -0.002053  -0.000038  -0.000481   0.436805   0.000045  -0.000018
    11  O    0.000045   0.001216   0.001216   0.000045   8.336354  -0.034137
    12  H    0.000002   0.000006   0.000745  -0.000018  -0.034137   0.456755
    13  H   -0.000018   0.000745   0.000006   0.000002  -0.034137   0.000241
              13
     1  C    0.002362
     2  C   -0.072229
     3  C    0.397432
     4  C    0.002852
     5  C   -0.000484
     6  C   -0.000029
     7  H   -0.000018
     8  H    0.000745
     9  H    0.000006
    10  H    0.000002
    11  O   -0.034137
    12  H    0.000241
    13  H    0.456755
 Mulliken charges:
               1
     1  C   -0.215633
     2  C   -0.324153
     3  C    0.153523
     4  C    0.153523
     5  C   -0.324153
     6  C   -0.215633
     7  H    0.237984
     8  H    0.243699
     9  H    0.243699
    10  H    0.237984
    11  O   -0.683846
    12  H    0.246502
    13  H    0.246502
 Sum of Mulliken charges =   0.00000
 Mulliken charges with hydrogens summed into heavy atoms:
               1
     1  C    0.022351
     2  C   -0.080453
     3  C    0.400025
     4  C    0.400025
     5  C   -0.080453
     6  C    0.022351
    11  O   -0.683846
 Electronic spatial extent (au):  <R**2>=            614.7050
 Charge=              0.0000 electrons
 Dipole moment (field-independent basis, Debye):
    X=             -1.6647    Y=             -0.2665    Z=              0.0000  Tot=              1.6859
 Quadrupole moment (field-independent basis, Debye-Ang):
   XX=            -46.7316   YY=            -37.6022   ZZ=            -34.7193
   XY=             -0.5574   XZ=              0.0000   YZ=              0.0000
 Traceless Quadrupole moment (field-independent basis, Debye-Ang):
   XX=             -7.0472   YY=              2.0822   ZZ=              4.9651
   XY=             -0.5574   XZ=              0.0000   YZ=              0.0000
 Octapole moment (field-independent basis, Debye-Ang**2):
  XXX=              3.8850  YYY=              2.2757  ZZZ=              0.0000  XYY=             -1.5904
  XXY=              0.7755  XXZ=              0.0000  XZZ=             -4.5677  YZZ=              5.6318
  YYZ=              0.0000  XYZ=              0.0000
 Hexadecapole moment (field-independent basis, Debye-Ang**3):
 XXXX=            -96.1555 YYYY=           -312.7150 ZZZZ=           -359.2561 XXXY=            -50.0635
 XXXZ=              0.0000 YYYX=            -44.1433 YYYZ=              0.0000 ZZZX=              0.0000
 ZZZY=              0.0000 XXYY=            -80.5822 XXZZ=            -81.2573 YYZZ=           -101.0866
 XXYZ=              0.0000 YYXZ=              0.0000 ZZXY=             -9.1634
 N-N= 2.751813026623D+02 E-N=-1.260001579018D+03  KE= 3.030244673920D+02
 Symmetry A'   KE= 1.880837827987D+02
 Symmetry A"   KE= 1.149406845932D+02
 1\1\GINC-QC0019\FOpt\RHF\3-21G\C6H6O1\ELIOT\05-Oct-2018\0\\# opt hf/3-
 21g\\oxepin-hf.log\\0,1\C,-1.4296826285,0.663386582,0.1276173826\C,-0.
 295604466,1.5167595443,-0.2445067716\C,0.9732776894,1.1975593042,-0.10
 99579903\C,0.9732776894,-1.1975593042,-0.1099579903\C,-0.295604466,-1.
 5167595443,-0.2445067716\C,-1.4296826285,-0.663386582,0.1276173826\H,-
 2.3353944604,1.1792808902,0.3864437164\H,-0.5222974901,2.483702319,-0.
 651095155\H,-0.5222974901,-2.483702319,-0.651095155\H,-2.3353944604,-1
 .1792808902,0.3864437164\O,1.4332106649,0.,0.4574849115\H,1.7746160232
 ,-1.8460860212,-0.3957136398\H,1.7746160232,1.8460860212,-0.3957136398
 \\Version=ES64L-G09RevE.01\State=1-A'\HF=-303.7909871\RMSD=2.906e-09\R
 MSF=3.887e-05\Dipole=-0.3038092,0.,-0.5896274\Quadrupole=0.6427533,3.6
 914048,-4.334158,0.,-2.3445235,0.\PG=CS [SG(O1),X(C6H6)]\\@


 LOVE IS BLIND, THAT'S WHY ALL THE WORLD LOVES A LOUVER.
 Job cpu time:       0 days  0 hours  0 minutes  9.6 seconds.
 File lengths (MBytes):  RWF=      5 Int=      0 D2E=      0 Chk=      2 Scr=      1
 Normal termination of Gaussian 09 at Fri Oct  5 10:55:05 2018.
