 Entering Gaussian System, Link 0=/home/eliot/software/g09E01/g09
 Initial command:
 /home/eliot/software/g09E01/l1.exe "/tmp/Gau-7452.inp" -scrdir="/tmp/"
 Entering Link 1 = /home/eliot/software/g09E01/l1.exe PID=      7454.
  
 Copyright (c) 1988,1990,1992,1993,1995,1998,2003,2009,2015,
            Gaussian, Inc.  All Rights Reserved.
  
 This is part of the Gaussian(R) 09 program.  It is based on
 the Gaussian(R) 03 system (copyright 2003, Gaussian, Inc.),
 the Gaussian(R) 98 system (copyright 1998, Gaussian, Inc.),
 the Gaussian(R) 94 system (copyright 1995, Gaussian, Inc.),
 the Gaussian 92(TM) system (copyright 1992, Gaussian, Inc.),
 the Gaussian 90(TM) system (copyright 1990, Gaussian, Inc.),
 the Gaussian 88(TM) system (copyright 1988, Gaussian, Inc.),
 the Gaussian 86(TM) system (copyright 1986, Carnegie Mellon
 University), and the Gaussian 82(TM) system (copyright 1983,
 Carnegie Mellon University). Gaussian is a federally registered
 trademark of Gaussian, Inc.
  
 This software contains proprietary and confidential information,
 including trade secrets, belonging to Gaussian, Inc.
  
 This software is provided under written license and may be
 used, copied, transmitted, or stored only in accord with that
 written license.
  
 The following legend is applicable only to US Government
 contracts under FAR:
  
                    RESTRICTED RIGHTS LEGEND
  
 Use, reproduction and disclosure by the US Government is
 subject to restrictions as set forth in subparagraphs (a)
 and (c) of the Commercial Computer Software - Restricted
 Rights clause in FAR 52.227-19.
  
 Gaussian, Inc.
 340 Quinnipiac St., Bldg. 40, Wallingford CT 06492
  
  
 ---------------------------------------------------------------
 Warning -- This program may not be used in any manner that
 competes with the business of Gaussian, Inc. or will provide
 assistance to any competitor of Gaussian, Inc.  The licensee
 of this program is prohibited from giving any competitor of
 Gaussian, Inc. access to this program.  By using this program,
 the user acknowledges that Gaussian, Inc. is engaged in the
 business of creating and licensing software in the field of
 computational chemistry and represents and warrants to the
 licensee that it is not a competitor of Gaussian, Inc. and that
 it will not use this program in any manner prohibited above.
 ---------------------------------------------------------------
  

 Cite this work as:
 Gaussian 09, Revision E.01,
 M. J. Frisch, G. W. Trucks, H. B. Schlegel, G. E. Scuseria, 
 M. A. Robb, J. R. Cheeseman, G. Scalmani, V. Barone, B. Mennucci, 
 G. A. Petersson, H. Nakatsuji, M. Caricato, X. Li, H. P. Hratchian, 
 A. F. Izmaylov, J. Bloino, G. Zheng, J. L. Sonnenberg, M. Hada, 
 M. Ehara, K. Toyota, R. Fukuda, J. Hasegawa, M. Ishida, T. Nakajima, 
 Y. Honda, O. Kitao, H. Nakai, T. Vreven, J. A. Montgomery, Jr., 
 J. E. Peralta, F. Ogliaro, M. Bearpark, J. J. Heyd, E. Brothers, 
 K. N. Kudin, V. N. Staroverov, T. Keith, R. Kobayashi, J. Normand, 
 K. Raghavachari, A. Rendell, J. C. Burant, S. S. Iyengar, J. Tomasi, 
 M. Cossi, N. Rega, J. M. Millam, M. Klene, J. E. Knox, J. B. Cross, 
 V. Bakken, C. Adamo, J. Jaramillo, R. Gomperts, R. E. Stratmann, 
 O. Yazyev, A. J. Austin, R. Cammi, C. Pomelli, J. W. Ochterski, 
 R. L. Martin, K. Morokuma, V. G. Zakrzewski, G. A. Voth, 
 P. Salvador, J. J. Dannenberg, S. Dapprich, A. D. Daniels, 
 O. Farkas, J. B. Foresman, J. V. Ortiz, J. Cioslowski, 
 and D. J. Fox, Gaussian, Inc., Wallingford CT, 2013.
 
 ******************************************
 Gaussian 09:  ES64L-G09RevE.01 30-Nov-2015
                 5-Oct-2018 
 ******************************************
 %nproc=2
 Will use up to    2 processors via shared memory.
 ---------------
 # freq bp86/SVP
 ---------------
 1/10=4,30=1,38=1/1,3;
 2/12=2,17=6,18=5,40=1/2;
 3/5=18,7=101,11=2,16=1,25=1,30=1,71=2,74=404,140=1/1,2,3;
 4//1;
 5/5=2,38=5,98=1/2;
 8/6=4,10=90,11=11/1;
 11/6=1,8=1,9=11,15=111,16=1/1,2,10;
 10/6=1/2;
 6/7=2,8=2,9=2,10=2,18=1,28=1/1;
 7/8=1,10=1,25=1/1,2,3,16;
 1/10=4,30=1/3;
 99//99;
 -----------
 ts-bp86.log
 -----------
 Symbolic Z-matrix:
 Charge =  0 Multiplicity = 1
 C                    -1.4209    0.70581   0.16632 
 C                    -0.30645   1.45966  -0.24861 
 C                     0.99622   0.93864  -0.22529 
 C                     0.99622  -0.93864  -0.2253 
 C                    -0.30645  -1.45966  -0.24861 
 C                    -1.4209   -0.70581   0.16632 
 H                    -2.38948   1.2188    0.28786 
 H                    -0.45767   2.45469  -0.70013 
 H                    -0.45767  -2.45469  -0.70014 
 H                    -2.38948  -1.2188    0.28786 
 O                     1.34735   0.        0.74899 
 H                     1.8445   -1.43074  -0.73815 
 H                     1.8445    1.43074  -0.73815 
 

 GradGradGradGradGradGradGradGradGradGradGradGradGradGradGradGradGradGrad
 Berny optimization.
 Initialization pass.
 Trust Radius=3.00D-01 FncErr=1.00D-07 GrdErr=1.00D-07
 Number of steps in this run=      2 maximum allowed number of steps=      2.
 GradGradGradGradGradGradGradGradGradGradGradGradGradGradGradGradGradGrad

                          Input orientation:                          
 ---------------------------------------------------------------------
 Center     Atomic      Atomic             Coordinates (Angstroms)
 Number     Number       Type             X           Y           Z
 ---------------------------------------------------------------------
      1          6           0       -1.420900    0.705810    0.166320
      2          6           0       -0.306450    1.459660   -0.248610
      3          6           0        0.996220    0.938640   -0.225290
      4          6           0        0.996220   -0.938640   -0.225300
      5          6           0       -0.306450   -1.459660   -0.248610
      6          6           0       -1.420900   -0.705810    0.166320
      7          1           0       -2.389480    1.218800    0.287860
      8          1           0       -0.457670    2.454690   -0.700130
      9          1           0       -0.457670   -2.454690   -0.700140
     10          1           0       -2.389480   -1.218800    0.287860
     11          8           0        1.347350    0.000000    0.748990
     12          1           0        1.844500   -1.430740   -0.738150
     13          1           0        1.844500    1.430740   -0.738150
 ---------------------------------------------------------------------
                    Distance matrix (angstroms):
                    1          2          3          4          5
     1  C    0.000000
     2  C    1.407997   0.000000
     3  C    2.459682   1.403194   0.000000
     4  C    2.949585   2.729347   1.877280   0.000000
     5  C    2.470511   2.919320   2.729347   1.403194   0.000000
     6  C    1.411620   2.470511   2.949584   2.459684   1.407997
     7  H    1.102759   2.164446   3.435808   4.047326   3.435253
     8  H    2.176495   1.103097   2.153527   3.722089   3.943206
     9  H    3.415747   3.943207   3.722092   2.153527   1.103101
    10  H    2.158018   3.435253   4.047324   3.435810   2.164446
    11  O    2.915627   2.420923   1.397698   1.397705   2.420923
    12  H    4.005715   3.636021   2.568378   1.106687   2.206144
    13  H    3.465029   2.206144   1.106692   2.568376   3.636021
                    6          7          8          9         10
     6  C    0.000000
     7  H    2.158018   0.000000
     8  H    3.415744   2.497086   0.000000
     9  H    2.176499   4.266446   4.909380   0.000000
    10  H    1.102759   2.437600   4.266444   2.497090   0.000000
    11  O    2.915627   3.957526   3.373952   3.373956   3.957526
    12  H    3.465029   5.098955   4.516414   2.519902   4.361674
    13  H    4.005715   4.361674   2.519902   4.516414   5.098955
                   11         12         13
    11  O    0.000000
    12  H    2.122678   0.000000
    13  H    2.122678   2.861480   0.000000
 Stoichiometry    C6H6O
 Framework group  C1[X(C6H6O)]
 Deg. of freedom    33
 Full point group                 C1      NOp   1
 Largest Abelian subgroup         C1      NOp   1
 Largest concise Abelian subgroup C1      NOp   1
                         Standard orientation:                         
 ---------------------------------------------------------------------
 Center     Atomic      Atomic             Coordinates (Angstroms)
 Number     Number       Type             X           Y           Z
 ---------------------------------------------------------------------
      1          6           0       -1.420899    0.705810    0.166319
      2          6           0       -0.306449    1.459660   -0.248611
      3          6           0        0.996221    0.938640   -0.225291
      4          6           0        0.996221   -0.938640   -0.225301
      5          6           0       -0.306449   -1.459660   -0.248611
      6          6           0       -1.420899   -0.705810    0.166319
      7          1           0       -2.389479    1.218800    0.287859
      8          1           0       -0.457669    2.454690   -0.700131
      9          1           0       -0.457669   -2.454690   -0.700141
     10          1           0       -2.389479   -1.218800    0.287859
     11          8           0        1.347351    0.000000    0.748989
     12          1           0        1.844501   -1.430740   -0.738151
     13          1           0        1.844501    1.430740   -0.738151
 ---------------------------------------------------------------------
 Rotational constants (GHZ):      4.2853452      3.6930166      2.2370040
 Standard basis: SVP (5D, 7F)
 There are   135 symmetry adapted cartesian basis functions of A   symmetry.
 There are   128 symmetry adapted basis functions of A   symmetry.
   128 basis functions,   217 primitive gaussians,   135 cartesian basis functions
    25 alpha electrons       25 beta electrons
       nuclear repulsion energy       277.8012873845 Hartrees.
 NAtoms=   13 NActive=   13 NUniq=   13 SFac= 1.00D+00 NAtFMM=   60 NAOKFM=F Big=F
 Integral buffers will be    131072 words long.
 Raffenetti 2 integral format.
 Two-electron integral symmetry is turned on.
 One-electron integrals computed using PRISM.
 NBasis=   128 RedAO= T EigKep=  5.63D-04  NBF=   128
 NBsUse=   128 1.00D-06 EigRej= -1.00D+00 NBFU=   128
 ExpMin= 1.22D-01 ExpMax= 2.27D+03 ExpMxC= 3.41D+02 IAcc=1 IRadAn=         1 AccDes= 0.00D+00
 Harris functional with IExCor=  404 and IRadAn=       1 diagonalized for initial guess.
 HarFok:  IExCor=  404 AccDes= 0.00D+00 IRadAn=         1 IDoV= 1 UseB2=F ITyADJ=14
 ICtDFT=  3500011 ScaDFX=  1.000000  1.000000  1.000000  1.000000
 FoFCou: FMM=F IPFlag=           0 FMFlag=      100000 FMFlg1=           0
         NFxFlg=           0 DoJE=T BraDBF=F KetDBF=T FulRan=T
         wScrn=  0.000000 ICntrl=     500 IOpCl=  0 I1Cent=   200000004 NGrid=           0
         NMat0=    1 NMatS0=      1 NMatT0=    0 NMatD0=    1 NMtDS0=    0 NMtDT0=    0
 Petite list used in FoFCou.
 Requested convergence on RMS density matrix=1.00D-08 within 128 cycles.
 Requested convergence on MAX density matrix=1.00D-06.
 Requested convergence on             energy=1.00D-06.
 No special actions if energy rises.
 Integral accuracy reduced to 1.0D-05 until final iterations.
 Initial convergence to 1.0D-05 achieved.  Increase integral accuracy.
 SCF Done:  E(RB-P86) =  -307.167005146     A.U. after   15 cycles
            NFock= 15  Conv=0.48D-08     -V/T= 2.0113
 Range of M.O.s used for correlation:     1   128
 NBasis=   128 NAE=    25 NBE=    25 NFC=     0 NFV=     0
 NROrb=    128 NOA=    25 NOB=    25 NVA=   103 NVB=   103
 Symmetrizing basis deriv contribution to polar:
 IMax=3 JMax=2 DiffMx= 0.00D+00
 G2DrvN: will do    14 centers at a time, making    1 passes.
 Calling FoFCou, ICntrl=  3507 FMM=F I1Cent=   0 AccDes= 0.00D+00.
 End of G2Drv F.D. properties file   721 does not exist.
 End of G2Drv F.D. properties file   722 does not exist.
 End of G2Drv F.D. properties file   788 does not exist.
          IDoAtm=1111111111111
          Differentiating once with respect to electric field.
                with respect to dipole field.
          Differentiating once with respect to nuclear coordinates.
          There are    42 degrees of freedom in the 1st order CPHF.  IDoFFX=6 NUNeed=     3.
     39 vectors produced by pass  0 Test12= 6.13D-15 2.38D-09 XBig12= 1.90D+02 8.96D+00.
 AX will form    39 AO Fock derivatives at one time.
     39 vectors produced by pass  1 Test12= 6.13D-15 2.38D-09 XBig12= 6.38D+01 2.17D+00.
     39 vectors produced by pass  2 Test12= 6.13D-15 2.38D-09 XBig12= 4.51D-01 1.05D-01.
     39 vectors produced by pass  3 Test12= 6.13D-15 2.38D-09 XBig12= 7.18D-04 4.04D-03.
     33 vectors produced by pass  4 Test12= 6.13D-15 2.38D-09 XBig12= 2.08D-07 6.34D-05.
      8 vectors produced by pass  5 Test12= 6.13D-15 2.38D-09 XBig12= 3.46D-11 7.10D-07.
      3 vectors produced by pass  6 Test12= 6.13D-15 2.38D-09 XBig12= 5.58D-15 8.95D-09.
 InvSVY:  IOpt=1 It=  1 EMax= 5.33D-15
 Solved reduced A of dimension   200 with    42 vectors.
 Isotropic polarizability for W=    0.000000       66.13 Bohr**3.
 End of Minotr F.D. properties file   721 does not exist.
 End of Minotr F.D. properties file   722 does not exist.
 End of Minotr F.D. properties file   788 does not exist.

 **********************************************************************

            Population analysis using the SCF density.

 **********************************************************************

 Orbital symmetries:
       Occupied  (A) (A) (A) (A) (A) (A) (A) (A) (A) (A) (A) (A)
                 (A) (A) (A) (A) (A) (A) (A) (A) (A) (A) (A) (A)
                 (A)
       Virtual   (A) (A) (A) (A) (A) (A) (A) (A) (A) (A) (A) (A)
                 (A) (A) (A) (A) (A) (A) (A) (A) (A) (A) (A) (A)
                 (A) (A) (A) (A) (A) (A) (A) (A) (A) (A) (A) (A)
                 (A) (A) (A) (A) (A) (A) (A) (A) (A) (A) (A) (A)
                 (A) (A) (A) (A) (A) (A) (A) (A) (A) (A) (A) (A)
                 (A) (A) (A) (A) (A) (A) (A) (A) (A) (A) (A) (A)
                 (A) (A) (A) (A) (A) (A) (A) (A) (A) (A) (A) (A)
                 (A) (A) (A) (A) (A) (A) (A) (A) (A) (A) (A) (A)
                 (A) (A) (A) (A) (A) (A) (A)
 The electronic state is 1-A.
 Alpha  occ. eigenvalues --  -18.80590  -9.98271  -9.98270  -9.92541  -9.92525
 Alpha  occ. eigenvalues --   -9.92261  -9.92256  -0.99244  -0.74118  -0.69459
 Alpha  occ. eigenvalues --   -0.62162  -0.58010  -0.51039  -0.47778  -0.47353
 Alpha  occ. eigenvalues --   -0.42112  -0.41181  -0.40054  -0.37687  -0.34072
 Alpha  occ. eigenvalues --   -0.32406  -0.30317  -0.24032  -0.21922  -0.21845
 Alpha virt. eigenvalues --   -0.05336  -0.04717   0.03617   0.05560   0.06779
 Alpha virt. eigenvalues --    0.07510   0.10794   0.11682   0.12533   0.13371
 Alpha virt. eigenvalues --    0.19172   0.25086   0.25699   0.27072   0.33881
 Alpha virt. eigenvalues --    0.36574   0.37121   0.39459   0.40182   0.40185
 Alpha virt. eigenvalues --    0.41218   0.44237   0.44627   0.46123   0.48804
 Alpha virt. eigenvalues --    0.51304   0.52043   0.55311   0.55698   0.57987
 Alpha virt. eigenvalues --    0.58570   0.60040   0.62091   0.63681   0.65665
 Alpha virt. eigenvalues --    0.66427   0.66732   0.69413   0.70355   0.70557
 Alpha virt. eigenvalues --    0.78050   0.81727   0.88393   0.90815   0.98978
 Alpha virt. eigenvalues --    1.03472   1.08590   1.15481   1.21036   1.22833
 Alpha virt. eigenvalues --    1.23742   1.25605   1.26751   1.35834   1.37163
 Alpha virt. eigenvalues --    1.39581   1.57012   1.61328   1.61463   1.63273
 Alpha virt. eigenvalues --    1.64453   1.65249   1.66322   1.67293   1.70674
 Alpha virt. eigenvalues --    1.71776   1.74849   1.78718   1.80744   1.83160
 Alpha virt. eigenvalues --    1.85535   1.88605   1.91189   1.92170   1.95135
 Alpha virt. eigenvalues --    1.95770   1.99532   2.06386   2.08572   2.10634
 Alpha virt. eigenvalues --    2.14817   2.26106   2.26325   2.29781   2.29817
 Alpha virt. eigenvalues --    2.36088   2.44501   2.46127   2.54775   2.55841
 Alpha virt. eigenvalues --    2.62586   2.63994   2.68628   2.75092   2.81219
 Alpha virt. eigenvalues --    2.83527   2.89789   2.93990   3.03603   3.12089
 Alpha virt. eigenvalues --    3.22030   3.31204   3.46900
          Condensed to atoms (all electrons):
               1          2          3          4          5          6
     1  C    4.941888   0.364200   0.028856  -0.060876  -0.005098   0.424274
     2  C    0.364200   5.070034   0.370795  -0.010406  -0.029672  -0.005097
     3  C    0.028856   0.370795   4.939192   0.032326  -0.010408  -0.060876
     4  C   -0.060876  -0.010406   0.032326   4.939192   0.370802   0.028854
     5  C   -0.005098  -0.029672  -0.010408   0.370802   5.070020   0.364204
     6  C    0.424274  -0.005097  -0.060876   0.028854   0.364204   4.941887
     7  H    0.411403  -0.058296   0.012003  -0.000591   0.013142  -0.055606
     8  H   -0.049816   0.405502  -0.052549   0.003802  -0.001893   0.011371
     9  H    0.011371  -0.001893   0.003803  -0.052550   0.405502  -0.049816
    10  H   -0.055606   0.013142  -0.000591   0.012003  -0.058296   0.411404
    11  O    0.002835  -0.065538   0.277267   0.277260  -0.065536   0.002834
    12  H    0.001150  -0.003779   0.003007   0.395159  -0.062334   0.009736
    13  H    0.009737  -0.062337   0.395159   0.003007  -0.003779   0.001150
               7          8          9         10         11         12
     1  C    0.411403  -0.049816   0.011371  -0.055606   0.002835   0.001150
     2  C   -0.058296   0.405502  -0.001893   0.013142  -0.065538  -0.003779
     3  C    0.012003  -0.052549   0.003803  -0.000591   0.277267   0.003007
     4  C   -0.000591   0.003802  -0.052550   0.012003   0.277260   0.395159
     5  C    0.013142  -0.001893   0.405502  -0.058296  -0.065536  -0.062334
     6  C   -0.055606   0.011371  -0.049816   0.411404   0.002834   0.009736
     7  H    0.691002  -0.011762  -0.000303  -0.015293  -0.000103   0.000018
     8  H   -0.011762   0.679243   0.000050  -0.000303   0.003573   0.000115
     9  H   -0.000303   0.000050   0.679242  -0.011762   0.003573  -0.006054
    10  H   -0.015293  -0.000303  -0.011762   0.691001  -0.000103  -0.000357
    11  O   -0.000103   0.003573   0.003573  -0.000103   7.884122  -0.038482
    12  H    0.000018   0.000115  -0.006054  -0.000357  -0.038482   0.663759
    13  H   -0.000357  -0.006054   0.000115   0.000018  -0.038483   0.000959
              13
     1  C    0.009737
     2  C   -0.062337
     3  C    0.395159
     4  C    0.003007
     5  C   -0.003779
     6  C    0.001150
     7  H   -0.000357
     8  H   -0.006054
     9  H    0.000115
    10  H    0.000018
    11  O   -0.038483
    12  H    0.000959
    13  H    0.663763
 Mulliken charges:
               1
     1  C   -0.024319
     2  C    0.013344
     3  C    0.062017
     4  C    0.062016
     5  C    0.013345
     6  C   -0.024320
     7  H    0.014744
     8  H    0.018720
     9  H    0.018721
    10  H    0.014744
    11  O   -0.243220
    12  H    0.037104
    13  H    0.037103
 Sum of Mulliken charges =   0.00000
 Mulliken charges with hydrogens summed into heavy atoms:
               1
     1  C   -0.009575
     2  C    0.032064
     3  C    0.099120
     4  C    0.099120
     5  C    0.032067
     6  C   -0.009576
    11  O   -0.243220
 APT charges:
               1
     1  C   -0.017874
     2  C   -0.106619
     3  C    0.272752
     4  C    0.272742
     5  C   -0.106613
     6  C   -0.017878
     7  H    0.029625
     8  H    0.042570
     9  H    0.042569
    10  H    0.029625
    11  O   -0.465662
    12  H    0.012383
    13  H    0.012379
 Sum of APT charges =   0.00000
 APT charges with hydrogens summed into heavy atoms:
               1
     1  C    0.011751
     2  C   -0.064049
     3  C    0.285131
     4  C    0.285126
     5  C   -0.064044
     6  C    0.011747
    11  O   -0.465662
 Electronic spatial extent (au):  <R**2>=            588.4977
 Charge=              0.0000 electrons
 Dipole moment (field-independent basis, Debye):
    X=             -0.3321    Y=              0.0000    Z=             -1.5681  Tot=              1.6029
 Quadrupole moment (field-independent basis, Debye-Ang):
   XX=            -37.9415   YY=            -36.6859   ZZ=            -44.1398
   XY=              0.0000   XZ=             -2.7237   YZ=              0.0000
 Traceless Quadrupole moment (field-independent basis, Debye-Ang):
   XX=              1.6476   YY=              2.9032   ZZ=             -4.5508
   XY=              0.0000   XZ=             -2.7237   YZ=              0.0000
 Octapole moment (field-independent basis, Debye-Ang**2):
  XXX=              1.7582  YYY=              0.0000  ZZZ=              2.7776  XYY=              1.7482
  XXY=              0.0000  XXZ=             -1.6597  XZZ=              2.8606  YZZ=              0.0000
  YYZ=             -4.4878  XYZ=              0.0000
 Hexadecapole moment (field-independent basis, Debye-Ang**3):
 XXXX=           -350.2267 YYYY=           -323.0731 ZZZZ=            -83.3761 XXXY=             -0.0002
 XXXZ=             -8.0547 YYYX=             -0.0002 YYYZ=             -0.0001 ZZZX=              4.0253
 ZZZY=             -0.0002 XXYY=           -107.4353 XXZZ=            -79.0831 YYZZ=            -69.6665
 XXYZ=              0.0000 YYXZ=              0.1769 ZZXY=              0.0000
 N-N= 2.778012873845D+02 E-N=-1.269048486306D+03  KE= 3.037490838314D+02
  Exact polarizability:  79.249   0.000  82.479  -7.447   0.000  36.650
 Approx polarizability: 168.316   0.000 179.028 -14.985   0.000  65.358
 Calling FoFJK, ICntrl=    100527 FMM=F ISym2X=0 I1Cent= 0 IOpClX= 0 NMat=1 NMatS=1 NMatT=0.
 Full mass-weighted force constant matrix:
 Low frequencies --- -406.8723  -23.9518  -19.2645   -7.0694   -0.0012   -0.0008
 Low frequencies ---   -0.0007  290.5405  313.4421
 ******    1 imaginary frequencies (negative Signs) ****** 
 Diagonal vibrational polarizability:
        2.3665016       2.4402689       5.4106413
 Harmonic frequencies (cm**-1), IR intensities (KM/Mole), Raman scattering
 activities (A**4/AMU), depolarization ratios for plane and unpolarized
 incident light, reduced masses (AMU), force constants (mDyne/A),
 and normal coordinates:
                      1                      2                      3
                      A                      A                      A
 Frequencies --   -406.8718               290.5405               313.4400
 Red. masses --      6.0167                 5.1060                 2.9693
 Frc consts  --      0.5868                 0.2539                 0.1719
 IR Inten    --      0.0630                 2.1914                 0.9329
  Atom  AN      X      Y      Z        X      Y      Z        X      Y      Z
     1   6    -0.01  -0.05   0.02    -0.17   0.00  -0.15    -0.02  -0.02  -0.17
     2   6     0.03   0.04  -0.04    -0.04  -0.02   0.19     0.01  -0.03  -0.08
     3   6     0.01   0.40   0.17     0.00   0.03   0.05     0.06   0.09   0.18
     4   6     0.01  -0.40   0.17     0.00  -0.03   0.05    -0.06   0.09  -0.18
     5   6     0.03  -0.04  -0.04    -0.04   0.02   0.19    -0.01  -0.03   0.08
     6   6    -0.01   0.05   0.02    -0.17   0.00  -0.15     0.02  -0.02   0.17
     7   1     0.01  -0.03   0.09    -0.19   0.03  -0.41    -0.05  -0.02  -0.37
     8   1    -0.11  -0.10  -0.32     0.02   0.04   0.28     0.06  -0.05  -0.14
     9   1    -0.11   0.10  -0.32     0.02  -0.04   0.28    -0.06  -0.05   0.14
    10   1     0.01   0.03   0.09    -0.19  -0.03  -0.41     0.05  -0.02   0.37
    11   8    -0.05   0.00  -0.22     0.36   0.00  -0.10     0.00  -0.10   0.00
    12   1     0.02  -0.36   0.15    -0.15  -0.13  -0.11    -0.10   0.26  -0.41
    13   1     0.02   0.36   0.15    -0.15   0.13  -0.11     0.10   0.26   0.41
                      4                      5                      6
                      A                      A                      A
 Frequencies --    445.3128               471.0891               621.5988
 Red. masses --      3.3678                 5.6580                 3.7546
 Frc consts  --      0.3935                 0.7398                 0.8547
 IR Inten    --      5.8363                 2.1567                 1.9765
  Atom  AN      X      Y      Z        X      Y      Z        X      Y      Z
     1   6    -0.09  -0.01   0.08     0.20  -0.17   0.10    -0.01   0.09   0.24
     2   6    -0.03  -0.19  -0.16     0.15  -0.11  -0.04    -0.06  -0.07  -0.18
     3   6     0.01  -0.03   0.07     0.23   0.16  -0.04    -0.04   0.03   0.11
     4   6     0.01   0.03   0.07    -0.23   0.16   0.04     0.04   0.03  -0.11
     5   6    -0.03   0.19  -0.16    -0.15  -0.11   0.04     0.06  -0.07   0.18
     6   6    -0.09   0.01   0.08    -0.20  -0.17  -0.10     0.01   0.09  -0.24
     7   1    -0.05   0.06   0.07     0.31   0.00   0.22     0.00   0.09   0.36
     8   1    -0.02  -0.35  -0.51    -0.09  -0.08   0.09    -0.02  -0.16  -0.39
     9   1    -0.02   0.35  -0.51     0.09  -0.08  -0.09     0.02  -0.16   0.39
    10   1    -0.05  -0.06   0.07    -0.31   0.00  -0.22     0.00   0.09  -0.36
    11   8     0.17   0.00   0.07     0.00   0.15   0.00     0.00  -0.08   0.00
    12   1    -0.05   0.03  -0.04    -0.26   0.23  -0.07     0.05   0.12  -0.19
    13   1    -0.05  -0.03  -0.04     0.26   0.23   0.07    -0.05   0.12   0.19
                      7                      8                      9
                      A                      A                      A
 Frequencies --    683.7973               717.1911               753.6220
 Red. masses --      1.2338                 3.0896                 1.2537
 Frc consts  --      0.3399                 0.9363                 0.4195
 IR Inten    --     68.9922                 7.9419                20.7139
  Atom  AN      X      Y      Z        X      Y      Z        X      Y      Z
     1   6    -0.04   0.00  -0.02     0.07   0.01  -0.06    -0.01   0.01  -0.02
     2   6    -0.01  -0.06  -0.05    -0.07   0.17  -0.11    -0.02  -0.02  -0.07
     3   6     0.04   0.00  -0.02    -0.11   0.00   0.09    -0.02  -0.03  -0.05
     4   6     0.04   0.00  -0.02    -0.11   0.00   0.09     0.02  -0.03   0.05
     5   6    -0.01   0.06  -0.05    -0.07  -0.17  -0.11     0.02  -0.02   0.07
     6   6    -0.04   0.00  -0.02     0.07  -0.01  -0.06     0.01   0.01   0.02
     7   1     0.06   0.09   0.36     0.08  -0.10   0.53     0.04   0.05   0.21
     8   1     0.06   0.15   0.40     0.03   0.23   0.00     0.09   0.24   0.49
     9   1     0.06  -0.15   0.40     0.03  -0.23   0.00    -0.09   0.24  -0.49
    10   1     0.06  -0.09   0.36     0.08   0.10   0.53    -0.04   0.05  -0.21
    11   8     0.00   0.00   0.00     0.17   0.00   0.07     0.00  -0.01   0.00
    12   1     0.07  -0.27   0.29    -0.14   0.16  -0.12    -0.03   0.23  -0.29
    13   1     0.07   0.27   0.29    -0.14  -0.16  -0.12     0.03   0.23   0.29
                     10                     11                     12
                      A                      A                      A
 Frequencies --    809.7769               842.6142               880.6774
 Red. masses --      1.3879                 2.0119                 1.3839
 Frc consts  --      0.5362                 0.8416                 0.6324
 IR Inten    --     12.8138                 0.2045                 2.5590
  Atom  AN      X      Y      Z        X      Y      Z        X      Y      Z
     1   6     0.06   0.01   0.05    -0.07   0.07   0.03     0.03   0.00   0.05
     2   6    -0.05   0.04  -0.04     0.03  -0.10   0.10    -0.03  -0.04  -0.08
     3   6    -0.04  -0.02  -0.02     0.03  -0.05  -0.07     0.01   0.04   0.04
     4   6    -0.04   0.02  -0.02    -0.03  -0.05   0.07     0.01  -0.04   0.04
     5   6    -0.05  -0.04  -0.04    -0.03  -0.10  -0.10    -0.03   0.04  -0.08
     6   6     0.06  -0.01   0.05     0.07   0.07  -0.03     0.03   0.00   0.05
     7   1    -0.06  -0.13  -0.37    -0.11   0.06  -0.20    -0.04  -0.03  -0.35
     8   1    -0.09   0.03  -0.03     0.10  -0.23  -0.21    -0.01   0.20   0.45
     9   1    -0.09  -0.03  -0.03    -0.10  -0.23   0.21    -0.01  -0.20   0.45
    10   1    -0.06   0.13  -0.37     0.11   0.06   0.20    -0.04   0.03  -0.35
    11   8     0.06   0.00   0.01     0.00   0.09   0.00     0.00   0.00   0.00
    12   1    -0.01  -0.38   0.42    -0.01   0.42  -0.34    -0.02   0.22  -0.26
    13   1    -0.01   0.38   0.42     0.01   0.42   0.34    -0.02  -0.22  -0.26
                     13                     14                     15
                      A                      A                      A
 Frequencies --    917.8266               948.0603               960.7200
 Red. masses --      2.3748                 1.3233                 3.5117
 Frc consts  --      1.1787                 0.7008                 1.9097
 IR Inten    --      0.0001                 0.1418                 4.9917
  Atom  AN      X      Y      Z        X      Y      Z        X      Y      Z
     1   6     0.13  -0.07   0.01     0.06   0.01   0.09     0.11  -0.01  -0.07
     2   6    -0.01   0.15   0.00    -0.01  -0.02  -0.03     0.05  -0.04   0.02
     3   6    -0.08  -0.06  -0.07    -0.03  -0.02   0.02    -0.13  -0.11   0.17
     4   6     0.08  -0.06   0.07     0.03  -0.02  -0.02     0.13  -0.11  -0.17
     5   6     0.01   0.15   0.00     0.01  -0.02   0.03    -0.05  -0.04  -0.02
     6   6    -0.13  -0.07  -0.01    -0.06   0.01  -0.09    -0.11  -0.01   0.07
     7   1     0.12  -0.06  -0.08    -0.05  -0.02  -0.63     0.29   0.24   0.24
     8   1    -0.18  -0.03  -0.33     0.03   0.11   0.25     0.28  -0.05  -0.04
     9   1     0.18  -0.03   0.33    -0.03   0.11  -0.25    -0.28  -0.05   0.04
    10   1    -0.12  -0.06   0.08     0.05  -0.02   0.63    -0.29   0.24  -0.24
    11   8     0.00  -0.06   0.00     0.00   0.03   0.00     0.00   0.22   0.00
    12   1    -0.06   0.23  -0.46     0.06  -0.02   0.04     0.33   0.05   0.02
    13   1     0.06   0.23   0.46    -0.06  -0.02  -0.04    -0.33   0.05  -0.02
                     16                     17                     18
                      A                      A                      A
 Frequencies --    970.3643              1029.9539              1082.3133
 Red. masses --      4.7862                 1.6991                 1.6235
 Frc consts  --      2.6553                 1.0620                 1.1205
 IR Inten    --      6.1097                12.0772                17.3555
  Atom  AN      X      Y      Z        X      Y      Z        X      Y      Z
     1   6     0.21  -0.15  -0.10    -0.03   0.06   0.04     0.05   0.04  -0.04
     2   6     0.00  -0.21   0.07     0.06   0.01  -0.02    -0.03  -0.08   0.04
     3   6    -0.17  -0.06   0.08    -0.07  -0.06   0.06    -0.05   0.06  -0.04
     4   6    -0.17   0.06   0.08    -0.07   0.06   0.06     0.05   0.06   0.04
     5   6     0.00   0.21   0.07     0.06  -0.01  -0.02     0.03  -0.08  -0.04
     6   6     0.21   0.15  -0.10    -0.03  -0.06   0.04    -0.05   0.04   0.04
     7   1     0.23  -0.22   0.11    -0.01   0.13  -0.08     0.26   0.44  -0.07
     8   1    -0.06  -0.21   0.14     0.65   0.09  -0.04    -0.37  -0.12   0.07
     9   1    -0.06   0.21   0.14     0.65  -0.09  -0.04     0.37  -0.12  -0.07
    10   1     0.23   0.22   0.11    -0.01  -0.13  -0.08    -0.26   0.44   0.07
    11   8    -0.04   0.00  -0.10    -0.02   0.00  -0.11     0.00  -0.09   0.00
    12   1    -0.36  -0.14  -0.03    -0.10  -0.02   0.09     0.14   0.10   0.12
    13   1    -0.36   0.14  -0.03    -0.10   0.02   0.09    -0.14   0.10  -0.12
                     19                     20                     21
                      A                      A                      A
 Frequencies --   1158.8691              1172.0374              1199.7631
 Red. masses --      1.1067                 1.4146                 1.6142
 Frc consts  --      0.8757                 1.1449                 1.3690
 IR Inten    --      1.6245                 6.6539                19.2099
  Atom  AN      X      Y      Z        X      Y      Z        X      Y      Z
     1   6     0.02   0.05  -0.01    -0.02   0.03   0.00     0.00   0.01   0.00
     2   6     0.00   0.00   0.00    -0.03   0.01  -0.01     0.02  -0.02   0.01
     3   6    -0.03   0.01   0.00     0.05  -0.08   0.05    -0.02   0.08  -0.08
     4   6    -0.03  -0.01   0.00    -0.05  -0.08  -0.05    -0.02  -0.08  -0.08
     5   6     0.00   0.00   0.00     0.03   0.01   0.01     0.02   0.02   0.01
     6   6     0.02  -0.05  -0.01     0.02   0.03   0.00     0.00  -0.01   0.00
     7   1     0.30   0.59  -0.09     0.00   0.07   0.01    -0.02  -0.04  -0.01
     8   1    -0.19  -0.03   0.00    -0.57  -0.03   0.09     0.32   0.02  -0.02
     9   1    -0.19   0.03   0.00     0.57  -0.03  -0.09     0.32  -0.02  -0.02
    10   1     0.30  -0.59  -0.09     0.00   0.07  -0.01    -0.02   0.04  -0.01
    11   8     0.01   0.00   0.02     0.00   0.09   0.00     0.00   0.00   0.15
    12   1    -0.08  -0.06  -0.02    -0.23  -0.23  -0.20    -0.34  -0.39  -0.33
    13   1    -0.08   0.06  -0.02     0.23  -0.23   0.20    -0.34   0.39  -0.33
                     22                     23                     24
                      A                      A                      A
 Frequencies --   1294.3380              1373.4176              1420.5977
 Red. masses --      1.1878                 1.7337                 2.0081
 Frc consts  --      1.1724                 1.9267                 2.3877
 IR Inten    --      2.2045                 4.6012                 0.5063
  Atom  AN      X      Y      Z        X      Y      Z        X      Y      Z
     1   6     0.02   0.03  -0.01     0.01  -0.08   0.00    -0.08  -0.09   0.04
     2   6     0.04   0.02  -0.02    -0.04  -0.03   0.03    -0.06   0.08  -0.02
     3   6     0.04  -0.04   0.02    -0.07   0.09  -0.08     0.11  -0.07   0.02
     4   6    -0.04  -0.04  -0.02    -0.07  -0.09  -0.08    -0.11  -0.07  -0.02
     5   6    -0.04   0.02   0.02    -0.04   0.03   0.03     0.06   0.08   0.02
     6   6    -0.02   0.03   0.01     0.01   0.08   0.00     0.08  -0.09  -0.04
     7   1    -0.14  -0.29   0.06     0.13   0.13  -0.06     0.21   0.51  -0.10
     8   1    -0.28   0.00   0.05     0.35   0.00  -0.04     0.09   0.11  -0.07
     9   1     0.28   0.00  -0.05     0.35   0.00  -0.04    -0.09   0.11   0.07
    10   1     0.14  -0.29  -0.06     0.13  -0.13  -0.06    -0.21   0.51   0.10
    11   8     0.00  -0.02   0.00     0.05   0.00   0.06     0.00   0.00   0.00
    12   1     0.34   0.36   0.24     0.36   0.35   0.24     0.16   0.26   0.18
    13   1    -0.34   0.36  -0.24     0.36  -0.35   0.24    -0.16   0.26  -0.18
                     25                     26                     27
                      A                      A                      A
 Frequencies --   1454.1114              1531.0252              1572.4177
 Red. masses --      5.3282                 4.1234                 5.9523
 Frc consts  --      6.6379                 5.6947                 8.6710
 IR Inten    --     11.1301                 6.3731                 0.2126
  Atom  AN      X      Y      Z        X      Y      Z        X      Y      Z
     1   6    -0.13  -0.14   0.05     0.05   0.31  -0.04     0.21   0.11  -0.06
     2   6     0.34   0.05  -0.07     0.07  -0.11   0.03    -0.36  -0.05   0.07
     3   6    -0.17   0.00  -0.04    -0.12   0.09  -0.05     0.17  -0.04   0.00
     4   6    -0.17   0.00  -0.04    -0.12  -0.09  -0.05    -0.17  -0.04   0.00
     5   6     0.34  -0.05  -0.07     0.07   0.11   0.03     0.36  -0.05  -0.07
     6   6    -0.13   0.14   0.05     0.05  -0.31  -0.04    -0.21   0.11   0.06
     7   1    -0.11  -0.05  -0.05    -0.27  -0.31   0.14     0.03  -0.30   0.07
     8   1    -0.45   0.06   0.25    -0.19  -0.15   0.08     0.38  -0.02  -0.12
     9   1    -0.45  -0.06   0.25    -0.19   0.15   0.08    -0.38  -0.02   0.12
    10   1    -0.11   0.05  -0.05    -0.27   0.31   0.14    -0.03  -0.30  -0.07
    11   8     0.04   0.00   0.06     0.03   0.00   0.03     0.00   0.01   0.00
    12   1    -0.09   0.06   0.12     0.16   0.22   0.18    -0.12   0.04   0.08
    13   1    -0.09  -0.06   0.12     0.16  -0.22   0.18     0.12   0.04  -0.08
                     28                     29                     30
                      A                      A                      A
 Frequencies --   3056.5237              3063.3275              3087.7701
 Red. masses --      1.0883                 1.0896                 1.0857
 Frc consts  --      5.9901                 6.0244                 6.0989
 IR Inten    --      9.1565                22.9584                 0.1576
  Atom  AN      X      Y      Z        X      Y      Z        X      Y      Z
     1   6     0.00   0.00   0.00     0.00   0.00   0.00     0.04  -0.02  -0.01
     2   6     0.00   0.01  -0.01     0.00   0.01  -0.01    -0.01   0.03  -0.01
     3   6    -0.05  -0.02   0.02    -0.05  -0.02   0.03     0.01   0.00   0.00
     4   6     0.05  -0.02  -0.02    -0.05   0.02   0.03    -0.01   0.00   0.00
     5   6     0.00   0.01   0.01     0.00  -0.01  -0.01     0.01   0.03   0.01
     6   6     0.00   0.00   0.00     0.00   0.00   0.00    -0.04  -0.02   0.01
     7   1    -0.04   0.02   0.00    -0.02   0.01   0.00    -0.52   0.27   0.07
     8   1     0.02  -0.14   0.06     0.02  -0.16   0.07     0.05  -0.33   0.15
     9   1    -0.02  -0.14  -0.06     0.02   0.16   0.08    -0.05  -0.33  -0.15
    10   1     0.04   0.02   0.00    -0.02  -0.01   0.00     0.52   0.28  -0.07
    11   8     0.00   0.00   0.00     0.00   0.00   0.00     0.00   0.00   0.00
    12   1    -0.53   0.30   0.31     0.53  -0.30  -0.31     0.09  -0.05  -0.05
    13   1     0.53   0.30  -0.32     0.53   0.30  -0.31    -0.09  -0.05   0.05
                     31                     32                     33
                      A                      A                      A
 Frequencies --   3094.7846              3101.3374              3111.1793
 Red. masses --      1.0904                 1.0943                 1.0975
 Frc consts  --      6.1532                 6.2011                 6.2589
 IR Inten    --     12.5006                16.4941                 7.6143
  Atom  AN      X      Y      Z        X      Y      Z        X      Y      Z
     1   6     0.03  -0.02   0.00     0.03  -0.01   0.00    -0.05   0.03   0.01
     2   6    -0.01   0.05  -0.02     0.01  -0.05   0.02     0.00   0.03  -0.01
     3   6     0.01   0.01  -0.01    -0.01   0.00   0.00     0.01   0.00   0.00
     4   6     0.01  -0.01  -0.01     0.01   0.00   0.00     0.01   0.00   0.00
     5   6    -0.01  -0.05  -0.02    -0.01  -0.05  -0.02     0.00  -0.03  -0.01
     6   6     0.03   0.02   0.00    -0.03  -0.01   0.00    -0.05  -0.03   0.01
     7   1    -0.31   0.17   0.04    -0.34   0.17   0.04     0.53  -0.28  -0.07
     8   1     0.09  -0.53   0.24    -0.08   0.53  -0.24     0.05  -0.31   0.14
     9   1     0.09   0.53   0.24     0.08   0.53   0.24     0.05   0.31   0.14
    10   1    -0.31  -0.17   0.04     0.34   0.17  -0.04     0.53   0.28  -0.07
    11   8     0.00   0.00   0.00     0.00   0.00   0.00     0.00   0.00   0.00
    12   1    -0.13   0.07   0.07    -0.08   0.04   0.05    -0.06   0.03   0.03
    13   1    -0.13  -0.07   0.07     0.08   0.04  -0.05    -0.06  -0.03   0.03

 -------------------
 - Thermochemistry -
 -------------------
 Temperature   298.150 Kelvin.  Pressure   1.00000 Atm.
 Atom     1 has atomic number  6 and mass  12.00000
 Atom     2 has atomic number  6 and mass  12.00000
 Atom     3 has atomic number  6 and mass  12.00000
 Atom     4 has atomic number  6 and mass  12.00000
 Atom     5 has atomic number  6 and mass  12.00000
 Atom     6 has atomic number  6 and mass  12.00000
 Atom     7 has atomic number  1 and mass   1.00783
 Atom     8 has atomic number  1 and mass   1.00783
 Atom     9 has atomic number  1 and mass   1.00783
 Atom    10 has atomic number  1 and mass   1.00783
 Atom    11 has atomic number  8 and mass  15.99491
 Atom    12 has atomic number  1 and mass   1.00783
 Atom    13 has atomic number  1 and mass   1.00783
 Molecular mass:    94.04186 amu.
 Principal axes and moments of inertia in atomic units:
                           1         2         3
     Eigenvalues --   421.14255 488.69026 806.76708
           X            0.99951   0.00000  -0.03130
           Y            0.00000   1.00000   0.00000
           Z            0.03130   0.00000   0.99951
 This molecule is an asymmetric top.
 Rotational symmetry number  1.
 Rotational temperatures (Kelvin)      0.20566     0.17724     0.10736
 Rotational constants (GHZ):           4.28535     3.69302     2.23700
    1 imaginary frequencies ignored.
 Zero-point vibrational energy     259771.5 (Joules/Mol)
                                   62.08687 (Kcal/Mol)
 Warning -- explicit consideration of   4 degrees of freedom as
           vibrations may cause significant error
 Vibrational temperatures:    418.02   450.97   640.71   677.79   894.34
          (Kelvin)            983.83  1031.88  1084.29  1165.09  1212.33
                             1267.10  1320.55  1364.05  1382.26  1396.14
                             1481.87  1557.21  1667.35  1686.30  1726.19
                             1862.26  1976.04  2043.92  2092.14  2202.80
                             2262.36  4397.65  4407.44  4442.61  4452.70
                             4462.13  4476.29
 
 Zero-point correction=                           0.098942 (Hartree/Particle)
 Thermal correction to Energy=                    0.104126
 Thermal correction to Enthalpy=                  0.105071
 Thermal correction to Gibbs Free Energy=         0.070315
 Sum of electronic and zero-point Energies=           -307.068063
 Sum of electronic and thermal Energies=              -307.062879
 Sum of electronic and thermal Enthalpies=            -307.061935
 Sum of electronic and thermal Free Energies=         -307.096690
 
                     E (Thermal)             CV                S
                      KCal/Mol        Cal/Mol-Kelvin    Cal/Mol-Kelvin
 Total                   65.340             20.734             73.149
 Electronic               0.000              0.000              0.000
 Translational            0.889              2.981             39.535
 Rotational               0.889              2.981             26.610
 Vibrational             63.563             14.773              7.005
 Vibration     1          0.687              1.691              1.471
 Vibration     2          0.701              1.648              1.344
 Vibration     3          0.805              1.371              0.810
 Vibration     4          0.828              1.314              0.735
                       Q            Log10(Q)             Ln(Q)
 Total Bot       0.454328D-32        -32.342631        -74.471659
 Total V=0       0.146997D+14         13.167308         30.318846
 Vib (Bot)       0.868921D-45        -45.061020       -103.756832
 Vib (Bot)    1  0.658004D+00         -0.181771         -0.418544
 Vib (Bot)    2  0.602073D+00         -0.220351         -0.507376
 Vib (Bot)    3  0.386555D+00         -0.412789         -0.950481
 Vib (Bot)    4  0.357723D+00         -0.446453         -1.027996
 Vib (V=0)       0.281137D+01          0.448919          1.033674
 Vib (V=0)    1  0.132642D+01          0.122681          0.282483
 Vib (V=0)    2  0.128262D+01          0.108098          0.248904
 Vib (V=0)    3  0.113200D+01          0.053847          0.123987
 Vib (V=0)    4  0.111479D+01          0.047193          0.108665
 Electronic      0.100000D+01          0.000000          0.000000
 Translational   0.358457D+08          7.554437         17.394734
 Rotational      0.145865D+06          5.163952         11.890439
 ***** Axes restored to original set *****
 -------------------------------------------------------------------
 Center     Atomic                   Forces (Hartrees/Bohr)
 Number     Number              X              Y              Z
 -------------------------------------------------------------------
      1        6          -0.000005703   -0.000015563    0.000005527
      2        6           0.000013102    0.000004856   -0.000000023
      3        6          -0.000007958    0.000004824   -0.000009782
      4        6          -0.000009727   -0.000001834   -0.000004544
      5        6           0.000013259   -0.000007007   -0.000002559
      6        6          -0.000005779    0.000015446    0.000005646
      7        1          -0.000005178    0.000002077    0.000001577
      8        1          -0.000000358    0.000004509   -0.000002131
      9        1          -0.000000316   -0.000002380   -0.000000719
     10        1          -0.000005114   -0.000002121    0.000001627
     11        8           0.000006629   -0.000001976    0.000015748
     12        1           0.000004470   -0.000001184   -0.000005987
     13        1           0.000002674    0.000000353   -0.000004380
 -------------------------------------------------------------------
 Cartesian Forces:  Max     0.000015748 RMS     0.000006821

 GradGradGradGradGradGradGradGradGradGradGradGradGradGradGradGradGradGrad
 Berny optimization.
 Search for a local minimum.
 Step number   1 out of a maximum of    2
 All quantities printed in internal units (Hartrees-Bohrs-Radians)
 Second derivative matrix not updated -- analytic derivatives used.
 ITU=  0
     Eigenvalues ---   -0.05390   0.00941   0.01244   0.02159   0.02479
     Eigenvalues ---    0.03623   0.04297   0.04556   0.04879   0.05028
     Eigenvalues ---    0.05924   0.07855   0.08217   0.09393   0.13196
     Eigenvalues ---    0.14122   0.15620   0.16714   0.18361   0.20395
     Eigenvalues ---    0.22201   0.30278   0.39846   0.52226   0.67079
     Eigenvalues ---    0.68171   0.84621   0.84801   0.96045   1.01313
     Eigenvalues ---    1.02030   1.12133   1.18712
 Eigenvalue     1 is  -5.39D-02 should be greater than     0.000000 Eigenvector:
                          Y3        Y4        Z11       Y13       Y12
   1                    0.53473  -0.53473  -0.32844   0.24105  -0.24105
                          Z3        Z4        Z8        Z9        Y5
   1                    0.23179   0.23178  -0.15813  -0.15813  -0.08065
 Angle between quadratic step and forces=  63.37 degrees.
 Linear search not attempted -- first point.
 B after Tr=     0.000000    0.000000    0.000012
         Rot=    1.000000    0.000000    0.000001    0.000000 Ang=   0.00 deg.
 Variable       Old X    -DE/DX   Delta X   Delta X   Delta X     New X
                                 (Linear)    (Quad)   (Total)
    X1       -2.68511  -0.00001   0.00000  -0.00001  -0.00001  -2.68513
    Y1        1.33379  -0.00002   0.00000  -0.00001  -0.00001   1.33378
    Z1        0.31430   0.00001   0.00000   0.00001   0.00002   0.31432
    X2       -0.57911   0.00001   0.00000   0.00002   0.00002  -0.57909
    Y2        2.75836   0.00000   0.00000   0.00002   0.00002   2.75838
    Z2       -0.46980   0.00000   0.00000   0.00001   0.00002  -0.46978
    X3        1.88258  -0.00001   0.00000   0.00000   0.00000   1.88258
    Y3        1.77377   0.00000   0.00000   0.00001   0.00001   1.77378
    Z3       -0.42574  -0.00001   0.00000   0.00000   0.00002  -0.42572
    X4        1.88258  -0.00001   0.00000   0.00000   0.00000   1.88258
    Y4       -1.77377   0.00000   0.00000  -0.00001  -0.00001  -1.77378
    Z4       -0.42576   0.00000   0.00000   0.00001   0.00003  -0.42573
    X5       -0.57911   0.00001   0.00000   0.00002   0.00002  -0.57909
    Y5       -2.75836  -0.00001   0.00000  -0.00002  -0.00002  -2.75838
    Z5       -0.46980   0.00000   0.00000   0.00000   0.00001  -0.46979
    X6       -2.68511  -0.00001   0.00000  -0.00001  -0.00001  -2.68513
    Y6       -1.33379   0.00002   0.00000   0.00001   0.00001  -1.33378
    Z6        0.31430   0.00001   0.00000   0.00001   0.00002   0.31432
    X7       -4.51546  -0.00001   0.00000  -0.00003  -0.00003  -4.51550
    Y7        2.30320   0.00000   0.00000  -0.00001  -0.00001   2.30319
    Z7        0.54398   0.00000   0.00000   0.00000   0.00000   0.54398
    X8       -0.86487   0.00000   0.00000   0.00001   0.00001  -0.86486
    Y8        4.63869   0.00000   0.00000   0.00001   0.00001   4.63870
    Z8       -1.32305   0.00000   0.00000  -0.00006  -0.00004  -1.32310
    X9       -0.86487   0.00000   0.00000   0.00001   0.00001  -0.86486
    Y9       -4.63869   0.00000   0.00000   0.00000   0.00000  -4.63870
    Z9       -1.32307   0.00000   0.00000  -0.00005  -0.00004  -1.32311
   X10       -4.51546  -0.00001   0.00000  -0.00003  -0.00003  -4.51550
   Y10       -2.30320   0.00000   0.00000   0.00001   0.00001  -2.30319
   Z10        0.54398   0.00000   0.00000  -0.00001   0.00000   0.54397
   X11        2.54612   0.00001   0.00000   0.00001   0.00000   2.54613
   Y11        0.00000   0.00000   0.00000   0.00000   0.00000   0.00000
   Z11        1.41539   0.00002   0.00000   0.00004   0.00006   1.41544
   X12        3.48560   0.00000   0.00000   0.00001   0.00002   3.48562
   Y12       -2.70371   0.00000   0.00000   0.00006   0.00006  -2.70365
   Z12       -1.39490  -0.00001   0.00000  -0.00007  -0.00005  -1.39495
   X13        3.48560   0.00000   0.00000   0.00001   0.00002   3.48562
   Y13        2.70371   0.00000   0.00000  -0.00006  -0.00006   2.70365
   Z13       -1.39490   0.00000   0.00000  -0.00006  -0.00004  -1.39494
         Item               Value     Threshold  Converged?
 Maximum Force            0.000016     0.000450     YES
 RMS     Force            0.000007     0.000300     YES
 Maximum Displacement     0.000058     0.001800     YES
 RMS     Displacement     0.000026     0.001200     YES
 Predicted change in Energy=-1.495807D-09
 Optimization completed.
    -- Stationary point found.
 GradGradGradGradGradGradGradGradGradGradGradGradGradGradGradGradGradGrad

 1\1\GINC-QC0019\Freq\RBP86\SVP\C6H6O1\ELIOT\05-Oct-2018\0\\# freq bp86
 /SVP\\ts-bp86.log\\0,1\C,-1.4209,0.70581,0.16632\C,-0.30645,1.45966,-0
 .24861\C,0.99622,0.93864,-0.22529\C,0.99622,-0.93864,-0.2253\C,-0.3064
 5,-1.45966,-0.24861\C,-1.4209,-0.70581,0.16632\H,-2.38948,1.2188,0.287
 86\H,-0.45767,2.45469,-0.70013\H,-0.45767,-2.45469,-0.70014\H,-2.38948
 ,-1.2188,0.28786\O,1.34735,0.0000000001,0.74899\H,1.8445,-1.43074,-0.7
 3815\H,1.8445,1.43074,-0.73815\\Version=ES64L-G09RevE.01\State=1-A\HF=
 -307.1670051\RMSD=4.781e-09\RMSF=6.821e-06\ZeroPoint=0.0989417\Thermal
 =0.1041264\Dipole=-0.130651,-0.0000026,-0.616931\DipoleDeriv=0.0365969
 ,-0.0220128,-0.0464867,-0.0674729,0.0522825,-0.0138689,-0.0303685,0.02
 23739,-0.1425009,-0.0929573,-0.0403692,-0.0007063,-0.0293232,-0.129039
 1,-0.0726012,0.0404149,-0.101715,-0.0978601,0.3224743,0.0046068,-0.029
 2015,-0.0314344,0.2810038,-0.2412668,0.0622243,-0.2195623,0.2147767,0.
 3224559,-0.0045983,-0.0291985,0.031428,0.2810055,0.241263,0.0622294,0.
 2195507,0.2147652,-0.0929459,0.0403619,-0.0007068,0.0293242,-0.1290383
 ,0.0726023,0.0404151,0.1017258,-0.0978545,0.0365944,0.0220161,-0.04648
 78,0.0674743,0.0522733,0.0138678,-0.0303679,-0.0223761,-0.1425023,-0.0
 574847,0.0683177,0.0389175,0.061424,0.027754,-0.0061728,0.0177631,0.01
 76015,0.1186057,0.0749453,0.0195287,0.0060481,0.0178597,-0.0424245,0.0
 683368,0.0174107,0.0837865,0.09519,0.0749452,-0.0195296,0.006048,-0.01
 786,-0.0424256,-0.0683372,0.0174099,-0.0837904,0.0951879,-0.0574841,-0
 .0683176,0.0389176,-0.0614238,0.027754,0.0061729,0.0177629,-0.0176022,
 0.1186059,-0.475675,0.0000003,-0.0686094,0.0000049,-0.4178456,0.000004
 4,-0.2498665,0.0000028,-0.5034665,-0.0457298,0.0517011,0.0657315,0.079
 0032,0.0193509,-0.0792955,0.0174829,-0.0831335,0.0635291,-0.0457351,-0
 .0517051,0.0657343,-0.0790041,0.0193492,0.0792953,0.0174896,0.0831384,
 0.0635237\Polar=79.2488238,0.0000703,82.4787331,-7.4471935,0.0000627,3
 6.6503875\PG=C01 [X(C6H6O1)]\NImag=1\\0.64261329,-0.01842220,0.6359298
 6,-0.11786848,-0.03853393,0.15494472,-0.24236088,-0.06290894,0.0525581
 4,0.64599267,-0.11192370,-0.16216923,0.05437811,-0.02721147,0.58647282
 ,0.07176342,0.05065801,-0.08157893,-0.05511107,-0.19882279,0.21281735,
 -0.04946775,-0.02098482,0.01427256,-0.31677902,0.09784960,0.00677613,0
 .67325358,0.01993437,0.05287326,-0.01518945,0.02767777,-0.10372622,0.0
 2973420,-0.00562130,0.28557810,0.01732421,0.01128672,0.00224505,-0.011
 37432,0.01520898,-0.05792296,-0.07100953,-0.21573809,0.28376901,-0.010
 07368,-0.02265860,0.00094238,0.01705644,0.00785864,-0.00525085,-0.0144
 5254,0.01939948,0.02067582,0.67325979,-0.01886231,-0.04340321,0.005821
 70,0.05844377,-0.00898475,-0.01619041,-0.01939973,0.02681224,0.0570938
 3,0.00561439,0.28557319,0.01191368,0.01174007,-0.00639144,-0.02576313,
 0.00923887,-0.00220511,0.02067582,-0.05709369,0.00700793,-0.07101693,0
 .21573243,0.28376302,0.02424432,0.05960949,0.00083980,-0.04575307,-0.0
 0522158,0.00789993,0.01705672,-0.05844385,-0.02576332,-0.31677978,-0.0
 2767800,-0.01137214,0.64599372,0.01933018,-0.03143281,-0.00728895,0.00
 522166,-0.00349545,-0.00389506,-0.00785881,-0.00898461,-0.00923913,-0.
 09784976,-0.10372580,-0.01520778,0.02721028,0.58646382,0.00168591,-0.0
 1117863,0.00306686,0.00790012,0.00389512,-0.00021736,-0.00525103,0.016
 19071,-0.00220501,0.00677791,-0.02973359,-0.05792239,-0.05511314,0.198
 81999,0.21281835,-0.10793483,-0.03007747,0.00684415,0.02424443,-0.0193
 3027,0.00168594,-0.01007372,0.01886239,0.01191379,-0.04946763,-0.01993
 435,0.01732393,-0.24236075,0.11192358,0.07176369,0.64261301,0.03007742
 ,-0.32195569,0.00071385,-0.05960949,-0.03143274,0.01117848,0.02265868,
 -0.04340339,-0.01174012,0.02098466,0.05287304,-0.01128664,0.06290913,-
 0.16216873,-0.05065802,0.01842240,0.63592959,0.00684409,-0.00071378,-0
 .04983392,0.00083976,0.00728897,0.00306692,0.00094243,-0.00582176,-0.0
 0639162,0.01427272,0.01518944,0.00224484,0.05255828,-0.05437809,-0.081
 57866,-0.11786875,0.03853400,0.15494455,-0.25797647,0.11166822,0.03073
 229,-0.01777966,0.01238310,0.00104257,-0.00125852,-0.00356210,0.003962
 84,0.00024529,-0.00072829,-0.00064287,0.00180892,0.00002675,0.00034479
 ,0.00152111,-0.00346826,0.00017326,0.27262460,0.10989119,-0.10798346,-
 0.01054199,-0.01628482,0.00927357,0.00142633,-0.00233135,-0.00131473,0
 .00231049,-0.00077502,-0.00065735,-0.00011603,-0.00128307,-0.00424573,
 0.00044668,0.02636355,-0.01167261,-0.00347637,-0.11648844,0.11523620,0
 .03047598,-0.00451688,-0.03816874,0.00184194,-0.00493553,0.00292103,0.
 00282293,-0.00059188,0.00401308,0.00085659,0.00235507,-0.00225730,0.00
 078534,0.00121995,0.00658693,-0.00232859,-0.00315724,0.00230891,-0.033
 79382,0.01164192,0.02834503,0.00525439,-0.02275548,0.00836461,-0.05399
 210,0.03825611,-0.00860791,0.00107440,0.02055895,-0.01262936,-0.001494
 31,-0.00034142,-0.00164054,-0.00002132,-0.00017595,0.00018756,-0.00319
 392,-0.00089208,0.00176228,0.00062479,0.00015789,-0.00056286,0.0555841
 0,0.00091408,-0.01297289,0.00530082,0.04293131,-0.26432540,0.10561184,
 -0.00535389,-0.00363512,0.00543634,-0.00079149,-0.00252909,0.00179826,
 0.00276587,0.00000578,-0.00049165,-0.00241776,0.00326520,0.00394245,-0
 .00065453,0.00022132,-0.00199863,-0.03821312,0.27935958,-0.00822345,0.
 00197452,0.00154391,-0.00096228,0.10890465,-0.07974172,-0.00492357,0.0
 0720152,0.00375027,-0.00297682,-0.00677460,0.00330884,0.00514571,-0.00
 103056,-0.00123595,0.00115261,0.00469613,0.00388303,-0.00121580,-0.000
 83461,-0.00258958,0.01313073,-0.11679312,0.07345730,-0.00319393,0.0008
 9203,0.00176229,-0.00002126,0.00017596,0.00018755,-0.00149437,0.000341
 53,-0.00164061,0.00107435,-0.02055879,-0.01262932,-0.05399275,-0.03825
 487,-0.00860761,0.00525438,0.02275532,0.00836464,-0.00014251,0.0009390
 5,-0.00063528,0.00008748,-0.00003767,-0.00011515,0.05558478,0.00241778
 ,0.00326525,-0.00394248,-0.00276591,0.00000578,0.00049164,0.00079148,-
 0.00252912,-0.00179833,0.00535373,-0.00363523,-0.00543661,-0.04293011,
 -0.26431716,-0.10560960,-0.00091399,-0.01297295,-0.00530094,0.00001003
 ,-0.00034250,0.00013382,0.00003767,0.00018202,0.00048874,0.03821200,0.
 27935157,0.00115259,-0.00469609,0.00388300,0.00514570,0.00103050,-0.00
 123594,-0.00297679,0.00677462,0.00330889,-0.00492345,-0.00720149,0.003
 75035,-0.00096219,-0.10890293,-0.07974293,-0.00822347,-0.00197445,0.00
 154382,0.00003441,-0.00070569,0.00102012,-0.00011515,-0.00048873,-0.00
 080601,0.01313048,0.11679126,0.07345852,0.00152112,0.00346825,0.000173
 27,0.00180892,-0.00002675,0.00034479,0.00024529,0.00072829,-0.00064287
 ,-0.00125851,0.00356210,0.00396280,-0.01777969,-0.01238309,0.00104262,
 -0.25797647,-0.11166824,0.03073228,0.00090517,0.00009697,-0.00047839,-
 0.00014251,-0.00001002,0.00003441,0.00062479,0.00065454,-0.00121579,0.
 27262459,-0.02636357,-0.01167262,0.00347640,0.00128310,-0.00424573,-0.
 00044670,0.00077502,-0.00065734,0.00011603,0.00233135,-0.00131473,-0.0
 0231048,0.01628484,0.00927355,-0.00142636,-0.10989121,-0.10798345,0.01
 054202,-0.00009696,0.00087736,0.00005921,-0.00093906,-0.00034251,0.000
 70569,-0.00015789,0.00022131,0.00083460,0.11648844,0.11523623,-0.00232
 860,0.00315719,0.00230890,0.00078535,-0.00121993,0.00658692,0.00085659
 ,-0.00235507,-0.00225732,0.00282296,0.00059184,0.00401308,0.00184192,0
 .00493555,0.00292091,0.03047598,0.00451688,-0.03816863,-0.00047839,-0.
 00005921,-0.00402950,-0.00063528,-0.00013382,0.00102012,-0.00056286,0.
 00199865,-0.00258954,-0.03379385,-0.01164193,0.02834503,-0.00023650,-0
 .00215117,0.00028386,0.00019824,0.02220521,-0.03057457,-0.07961784,0.0
 4567164,-0.02550351,-0.07961680,-0.04566922,-0.02550161,0.00019808,-0.
 02220484,-0.03057455,-0.00023658,0.00215113,0.00028390,0.00047569,0.00
 047289,0.00100741,-0.00396928,0.00096285,-0.00037431,-0.00396926,-0.00
 096285,-0.00037432,0.00047568,-0.00047289,0.00100740,0.13841833,-0.009
 41552,0.00043900,0.00248710,0.02164791,-0.02830183,0.02408771,0.030461
 41,-0.11598706,0.10149093,-0.03045845,-0.11598054,-0.10148400,-0.02164
 769,-0.02830208,-0.02408804,0.00941549,0.00043921,-0.00248717,0.000439
 43,0.00022946,-0.00043015,0.00516986,0.00085371,0.00308222,-0.00517002
 ,0.00085367,-0.00308216,-0.00043943,0.00022945,0.00043018,-0.00000258,
 0.32405192,-0.01184434,-0.02117757,0.00491087,0.02648158,0.00664109,-0
 .00708473,-0.05183468,0.17883939,-0.15042474,-0.05183217,-0.17883306,-
 0.15042011,0.02648154,-0.00664112,-0.00708511,-0.01184428,0.02117752,0
 .00491102,0.00007816,0.00001847,0.00177610,0.00077529,-0.00126501,-0.0
 0103485,0.00077524,0.00126506,-0.00103491,0.00007817,-0.00001847,0.001
 77610,0.08397075,-0.00000666,0.33547819,0.00044380,-0.00023875,-0.0002
 3543,-0.00042303,0.00010891,0.00005244,-0.00034123,-0.00106683,-0.0005
 0541,-0.21815143,0.08448501,0.09519555,-0.01219133,0.01512377,0.009791
 32,-0.00283283,-0.00455940,0.00133055,-0.00003081,0.00010527,-0.000147
 95,0.00008878,0.00000126,-0.00000262,0.00009950,0.00009691,-0.00066941
 ,-0.00101757,0.00086410,0.00015673,0.01394001,-0.00534351,-0.00564272,
 0.22016973,0.00012222,-0.00129503,0.00066944,0.00189722,0.00124808,0.0
 0059754,0.00030044,0.00218161,-0.00906443,0.09129155,-0.08720913,-0.05
 463879,-0.00967818,0.00968114,0.00443090,-0.00230009,0.00037753,-0.002
 64933,0.00000563,0.00011134,0.00022378,-0.00000695,-0.00006901,-0.0002
 6732,0.00085640,-0.00001362,0.00135325,-0.00046543,0.00026713,0.000003
 45,0.00815389,-0.01926239,-0.01341042,-0.08987672,0.09464177,-0.000848
 26,0.00048460,-0.00067188,0.00000646,-0.00154410,0.00142602,-0.0032553
 5,0.00396662,-0.00101982,0.09290706,-0.05408455,-0.08387199,-0.0023481
 4,0.00006399,0.00316836,-0.00004674,-0.00151574,0.00374162,0.00003837,
 -0.00007216,-0.00027091,0.00032419,-0.00008112,0.00029629,-0.00035357,
 0.00083767,-0.00185166,-0.00027581,0.00003783,0.00034484,0.01317483,-0
 .02023465,-0.01588387,-0.09959428,0.07244677,0.09413098,-0.00283289,0.
 00455943,0.00133056,-0.01219167,-0.01512376,0.00979161,-0.21814500,-0.
 08448034,0.09519228,-0.00034118,0.00106686,-0.00050522,-0.00042307,-0.
 00010890,0.00005242,0.00044380,0.00023873,-0.00023543,-0.00101759,-0.0
 0086411,0.00015672,0.00009951,-0.00009690,-0.00066945,0.00008878,-0.00
 000126,-0.00000262,-0.00003081,-0.00010527,-0.00014795,0.01394024,0.00
 534309,-0.00564253,0.00024641,-0.00029998,0.00027123,0.22016348,0.0023
 0006,0.00037759,0.00264938,0.00967789,0.00968111,-0.00443078,-0.091286
 74,-0.08720760,0.05463678,-0.00030047,0.00218136,0.00906440,-0.0018971
 3,0.00124809,-0.00059752,-0.00012225,-0.00129501,-0.00066943,0.0004654
 2,0.00026712,-0.00000345,-0.00085641,-0.00001361,-0.00135325,0.0000069
 6,-0.00006900,0.00026731,-0.00000563,0.00011134,-0.00022379,-0.0081540
 7,-0.01926250,0.01341078,0.00029997,-0.00065941,-0.00030516,0.08987241
 ,0.09464052,-0.00004674,0.00151578,0.00374161,-0.00234826,-0.00006394,
 0.00316851,0.09290448,0.05408287,-0.08387276,-0.00325520,-0.00396661,-
 0.00101970,0.00000642,0.00154413,0.00142601,-0.00084824,-0.00048465,-0
 .00067187,-0.00027581,-0.00003783,0.00034482,-0.00035355,-0.00083763,-
 0.00185164,0.00032421,0.00008113,0.00029630,0.00003837,0.00007216,-0.0
 0027091,0.01317472,0.02023469,-0.01588395,0.00027123,0.00030516,0.0004
 6201,-0.09959161,-0.07244526,0.09413160\\0.00000570,0.00001556,-0.0000
 0553,-0.00001310,-0.00000486,0.00000002,0.00000796,-0.00000482,0.00000
 978,0.00000973,0.00000183,0.00000454,-0.00001326,0.00000701,0.00000256
 ,0.00000578,-0.00001545,-0.00000565,0.00000518,-0.00000208,-0.00000158
 ,0.00000036,-0.00000451,0.00000213,0.00000032,0.00000238,0.00000072,0.
 00000511,0.00000212,-0.00000163,-0.00000663,0.00000198,-0.00001575,-0.
 00000447,0.00000118,0.00000599,-0.00000267,-0.00000035,0.00000438\\\@


 HEAVEN'S NET CASTS WIDE.
 THOUGH ITS MESHES ARE COARSE, NOTHING SLIPS THROUGH.

                                          -- LAO-TSU
 Job cpu time:       0 days  0 hours  3 minutes  6.1 seconds.
 File lengths (MBytes):  RWF=     30 Int=      0 D2E=      0 Chk=      2 Scr=      1
 Normal termination of Gaussian 09 at Fri Oct  5 10:23:00 2018.
