 Entering Gaussian System, Link 0=/home/eliot/software/g09E01/g09
 Initial command:
 /home/eliot/software/g09E01/l1.exe "/tmp/Gau-6459.inp" -scrdir="/tmp/"
 Entering Link 1 = /home/eliot/software/g09E01/l1.exe PID=      6461.
  
 Copyright (c) 1988,1990,1992,1993,1995,1998,2003,2009,2015,
            Gaussian, Inc.  All Rights Reserved.
  
 This is part of the Gaussian(R) 09 program.  It is based on
 the Gaussian(R) 03 system (copyright 2003, Gaussian, Inc.),
 the Gaussian(R) 98 system (copyright 1998, Gaussian, Inc.),
 the Gaussian(R) 94 system (copyright 1995, Gaussian, Inc.),
 the Gaussian 92(TM) system (copyright 1992, Gaussian, Inc.),
 the Gaussian 90(TM) system (copyright 1990, Gaussian, Inc.),
 the Gaussian 88(TM) system (copyright 1988, Gaussian, Inc.),
 the Gaussian 86(TM) system (copyright 1986, Carnegie Mellon
 University), and the Gaussian 82(TM) system (copyright 1983,
 Carnegie Mellon University). Gaussian is a federally registered
 trademark of Gaussian, Inc.
  
 This software contains proprietary and confidential information,
 including trade secrets, belonging to Gaussian, Inc.
  
 This software is provided under written license and may be
 used, copied, transmitted, or stored only in accord with that
 written license.
  
 The following legend is applicable only to US Government
 contracts under FAR:
  
                    RESTRICTED RIGHTS LEGEND
  
 Use, reproduction and disclosure by the US Government is
 subject to restrictions as set forth in subparagraphs (a)
 and (c) of the Commercial Computer Software - Restricted
 Rights clause in FAR 52.227-19.
  
 Gaussian, Inc.
 340 Quinnipiac St., Bldg. 40, Wallingford CT 06492
  
  
 ---------------------------------------------------------------
 Warning -- This program may not be used in any manner that
 competes with the business of Gaussian, Inc. or will provide
 assistance to any competitor of Gaussian, Inc.  The licensee
 of this program is prohibited from giving any competitor of
 Gaussian, Inc. access to this program.  By using this program,
 the user acknowledges that Gaussian, Inc. is engaged in the
 business of creating and licensing software in the field of
 computational chemistry and represents and warrants to the
 licensee that it is not a competitor of Gaussian, Inc. and that
 it will not use this program in any manner prohibited above.
 ---------------------------------------------------------------
  

 Cite this work as:
 Gaussian 09, Revision E.01,
 M. J. Frisch, G. W. Trucks, H. B. Schlegel, G. E. Scuseria, 
 M. A. Robb, J. R. Cheeseman, G. Scalmani, V. Barone, B. Mennucci, 
 G. A. Petersson, H. Nakatsuji, M. Caricato, X. Li, H. P. Hratchian, 
 A. F. Izmaylov, J. Bloino, G. Zheng, J. L. Sonnenberg, M. Hada, 
 M. Ehara, K. Toyota, R. Fukuda, J. Hasegawa, M. Ishida, T. Nakajima, 
 Y. Honda, O. Kitao, H. Nakai, T. Vreven, J. A. Montgomery, Jr., 
 J. E. Peralta, F. Ogliaro, M. Bearpark, J. J. Heyd, E. Brothers, 
 K. N. Kudin, V. N. Staroverov, T. Keith, R. Kobayashi, J. Normand, 
 K. Raghavachari, A. Rendell, J. C. Burant, S. S. Iyengar, J. Tomasi, 
 M. Cossi, N. Rega, J. M. Millam, M. Klene, J. E. Knox, J. B. Cross, 
 V. Bakken, C. Adamo, J. Jaramillo, R. Gomperts, R. E. Stratmann, 
 O. Yazyev, A. J. Austin, R. Cammi, C. Pomelli, J. W. Ochterski, 
 R. L. Martin, K. Morokuma, V. G. Zakrzewski, G. A. Voth, 
 P. Salvador, J. J. Dannenberg, S. Dapprich, A. D. Daniels, 
 O. Farkas, J. B. Foresman, J. V. Ortiz, J. Cioslowski, 
 and D. J. Fox, Gaussian, Inc., Wallingford CT, 2013.
 
 ******************************************
 Gaussian 09:  ES64L-G09RevE.01 30-Nov-2015
                 5-Oct-2018 
 ******************************************
 %nproc=2
 Will use up to    2 processors via shared memory.
 ----------------
 # freq hf/6-31g*
 ----------------
 1/10=4,30=1,38=1/1,3;
 2/12=2,17=6,18=5,40=1/2;
 3/5=1,6=6,7=1,11=9,16=1,25=1,30=1,71=2,140=1/1,2,3;
 4//1;
 5/5=2,38=5,98=1/2;
 8/6=4,10=90,11=11/1;
 10/13=10,15=4/2;
 11/6=3,8=1,9=11,15=111,16=1/1,2,10;
 10/6=1/2;
 6/7=2,8=2,9=2,10=2,18=1,28=1/1;
 7/8=1,10=1,25=1/1,2,3,16;
 1/10=4,30=1/3;
 99//99;
 ---------
 ts-hf.log
 ---------
 Symbolic Z-matrix:
 Charge =  0 Multiplicity = 1
 C                    -1.39985   0.69769   0.16147 
 C                    -0.30246   1.43785  -0.23761 
 C                     0.98044   0.90958  -0.22906 
 C                     0.98044  -0.90958  -0.22906 
 C                    -0.30246  -1.43785  -0.23761 
 C                    -1.39985  -0.69769   0.16147 
 H                    -2.34635   1.19744   0.27083 
 H                    -0.44614   2.41545  -0.6638 
 H                    -0.44614  -2.41545  -0.6638 
 H                    -2.34635  -1.19744   0.27083 
 O                     1.32862   0.        0.73458 
 H                     1.80926  -1.39254  -0.71419 
 H                     1.80926   1.39254  -0.71419 
 

 GradGradGradGradGradGradGradGradGradGradGradGradGradGradGradGradGradGrad
 Berny optimization.
 Initialization pass.
 Trust Radius=3.00D-01 FncErr=1.00D-07 GrdErr=1.00D-07
 Number of steps in this run=      2 maximum allowed number of steps=      2.
 GradGradGradGradGradGradGradGradGradGradGradGradGradGradGradGradGradGrad

                          Input orientation:                          
 ---------------------------------------------------------------------
 Center     Atomic      Atomic             Coordinates (Angstroms)
 Number     Number       Type             X           Y           Z
 ---------------------------------------------------------------------
      1          6           0       -1.399850    0.697690    0.161470
      2          6           0       -0.302460    1.437850   -0.237610
      3          6           0        0.980440    0.909580   -0.229060
      4          6           0        0.980440   -0.909580   -0.229060
      5          6           0       -0.302460   -1.437850   -0.237610
      6          6           0       -1.399850   -0.697690    0.161470
      7          1           0       -2.346350    1.197440    0.270830
      8          1           0       -0.446140    2.415450   -0.663800
      9          1           0       -0.446140   -2.415450   -0.663800
     10          1           0       -2.346350   -1.197440    0.270830
     11          8           0        1.328620    0.000000    0.734580
     12          1           0        1.809260   -1.392540   -0.714190
     13          1           0        1.809260    1.392540   -0.714190
 ---------------------------------------------------------------------
                    Distance matrix (angstroms):
                    1          2          3          4          5
     1  C    0.000000
     2  C    1.382522   0.000000
     3  C    2.421403   1.387435   0.000000
     4  C    2.898553   2.675132   1.819160   0.000000
     5  C    2.433939   2.875700   2.675132   1.387435   0.000000
     6  C    1.395380   2.433939   2.898553   2.421403   1.382522
     7  H    1.075905   2.119857   3.376431   3.969503   3.373537
     8  H    2.131040   1.076096   2.119381   3.644167   3.879459
     9  H    3.358910   3.879459   3.644167   2.119381   1.076096
    10  H    2.121165   3.373537   3.969503   3.376431   2.119857
    11  O    2.873982   2.381804   1.370097   1.370097   2.381804
    12  H    3.928642   3.563369   2.494404   1.074962   2.165304
    13  H    3.398232   2.165304   1.074962   2.494404   3.563369
                    6          7          8          9         10
     6  C    0.000000
     7  H    2.121165   0.000000
     8  H    3.358910   2.442924   0.000000
     9  H    2.131040   4.187757   4.830900   0.000000
    10  H    1.075905   2.394880   4.187757   2.442924   0.000000
    11  O    2.873982   3.892856   3.307512   3.307512   3.892856
    12  H    3.398232   4.994733   4.426077   2.477037   4.275210
    13  H    3.928642   4.275210   2.477037   4.426077   4.994733
                   11         12         13
    11  O    0.000000
    12  H    2.066184   0.000000
    13  H    2.066184   2.785080   0.000000
 Stoichiometry    C6H6O
 Framework group  CS[SG(O),X(C6H6)]
 Deg. of freedom    17
 Full point group                 CS      NOp   2
 Largest Abelian subgroup         CS      NOp   2
 Largest concise Abelian subgroup CS      NOp   2
                         Standard orientation:                         
 ---------------------------------------------------------------------
 Center     Atomic      Atomic             Coordinates (Angstroms)
 Number     Number       Type             X           Y           Z
 ---------------------------------------------------------------------
      1          6           0        0.170797   -1.398744    0.697690
      2          6           0       -0.235587   -0.304038    1.437850
      3          6           0       -0.235587    0.978890    0.909580
      4          6           0       -0.235587    0.978890   -0.909580
      5          6           0       -0.235587   -0.304038   -1.437850
      6          6           0        0.170797   -1.398744   -0.697690
      7          1           0        0.286463   -2.344494    1.197440
      8          1           0       -0.660810   -0.450555    2.415450
      9          1           0       -0.660810   -0.450555   -2.415450
     10          1           0        0.286463   -2.344494   -1.197440
     11          8           0        0.725711    1.333485    0.000000
     12          1           0       -0.726230    1.804459   -1.392540
     13          1           0       -0.726230    1.804459    1.392540
 ---------------------------------------------------------------------
 Rotational constants (GHZ):      4.4525820      3.8150334      2.3140192
 Standard basis: 6-31G(d) (6D, 7F)
 There are    62 symmetry adapted cartesian basis functions of A'  symmetry.
 There are    55 symmetry adapted cartesian basis functions of A"  symmetry.
 There are    62 symmetry adapted basis functions of A'  symmetry.
 There are    55 symmetry adapted basis functions of A"  symmetry.
   117 basis functions,   220 primitive gaussians,   117 cartesian basis functions
    25 alpha electrons       25 beta electrons
       nuclear repulsion energy       282.8479297386 Hartrees.
 NAtoms=   13 NActive=   13 NUniq=    7 SFac= 3.45D+00 NAtFMM=   60 NAOKFM=F Big=F
 Integral buffers will be    131072 words long.
 Raffenetti 1 integral format.
 Two-electron integral symmetry is turned on.
 One-electron integrals computed using PRISM.
 NBasis=   117 RedAO= T EigKep=  5.62D-04  NBF=    62    55
 NBsUse=   117 1.00D-06 EigRej= -1.00D+00 NBFU=    62    55
 ExpMin= 1.61D-01 ExpMax= 5.48D+03 ExpMxC= 8.25D+02 IAcc=1 IRadAn=         1 AccDes= 0.00D+00
 Harris functional with IExCor=  205 and IRadAn=       1 diagonalized for initial guess.
 HarFok:  IExCor=  205 AccDes= 0.00D+00 IRadAn=         1 IDoV= 1 UseB2=F ITyADJ=14
 ICtDFT=  3500011 ScaDFX=  1.000000  1.000000  1.000000  1.000000
 FoFCou: FMM=F IPFlag=           0 FMFlag=      100000 FMFlg1=           0
         NFxFlg=           0 DoJE=T BraDBF=F KetDBF=T FulRan=T
         wScrn=  0.000000 ICntrl=     500 IOpCl=  0 I1Cent=   200000004 NGrid=           0
         NMat0=    1 NMatS0=      1 NMatT0=    0 NMatD0=    1 NMtDS0=    0 NMtDT0=    0
 Petite list used in FoFCou.
 Initial guess orbital symmetries:
       Occupied  (A') (A') (A") (A') (A") (A') (A") (A') (A') (A")
                 (A') (A") (A') (A') (A") (A') (A") (A') (A") (A')
                 (A") (A') (A') (A") (A')
       Virtual   (A') (A") (A") (A') (A") (A') (A') (A') (A") (A")
                 (A") (A") (A') (A') (A") (A") (A') (A') (A') (A")
                 (A") (A') (A') (A") (A') (A") (A') (A') (A") (A")
                 (A') (A") (A') (A") (A") (A') (A") (A') (A") (A')
                 (A') (A") (A') (A') (A") (A") (A') (A') (A') (A")
                 (A') (A") (A') (A") (A') (A") (A') (A') (A') (A")
                 (A') (A") (A") (A') (A") (A") (A') (A') (A") (A")
                 (A') (A') (A") (A') (A') (A") (A") (A") (A") (A')
                 (A') (A") (A') (A") (A") (A') (A') (A") (A') (A")
                 (A') (A")
 The electronic state of the initial guess is 1-A'.
 Requested convergence on RMS density matrix=1.00D-08 within 128 cycles.
 Requested convergence on MAX density matrix=1.00D-06.
 Requested convergence on             energy=1.00D-06.
 No special actions if energy rises.
 Integral accuracy reduced to 1.0D-05 until final iterations.
 Initial convergence to 1.0D-05 achieved.  Increase integral accuracy.
 SCF Done:  E(RHF) =  -305.462279575     A.U. after   15 cycles
            NFock= 15  Conv=0.39D-08     -V/T= 2.0011
 Range of M.O.s used for correlation:     1   117
 NBasis=   117 NAE=    25 NBE=    25 NFC=     0 NFV=     0
 NROrb=    117 NOA=    25 NOB=    25 NVA=    92 NVB=    92
          Differentiating once with respect to electric field.
                with respect to dipole field.
          Electric field/nuclear overlap derivatives assumed to be zero.
          There are     3 degrees of freedom in the 1st order CPHF.  IDoFFX=0 NUNeed=     3.
      3 vectors produced by pass  0 Test12= 7.67D-14 3.33D-08 XBig12= 2.98D+01 3.39D+00.
 AX will form     3 AO Fock derivatives at one time.
      3 vectors produced by pass  1 Test12= 7.67D-14 3.33D-08 XBig12= 3.29D+00 5.40D-01.
      3 vectors produced by pass  2 Test12= 7.67D-14 3.33D-08 XBig12= 2.25D-01 1.12D-01.
      3 vectors produced by pass  3 Test12= 7.67D-14 3.33D-08 XBig12= 5.63D-03 2.30D-02.
      3 vectors produced by pass  4 Test12= 7.67D-14 3.33D-08 XBig12= 2.41D-04 7.55D-03.
      3 vectors produced by pass  5 Test12= 7.67D-14 3.33D-08 XBig12= 1.89D-05 1.39D-03.
      3 vectors produced by pass  6 Test12= 7.67D-14 3.33D-08 XBig12= 3.28D-06 7.43D-04.
      3 vectors produced by pass  7 Test12= 7.67D-14 3.33D-08 XBig12= 3.10D-07 2.30D-04.
      3 vectors produced by pass  8 Test12= 7.67D-14 3.33D-08 XBig12= 2.31D-08 4.49D-05.
      3 vectors produced by pass  9 Test12= 7.67D-14 3.33D-08 XBig12= 1.47D-09 6.72D-06.
      3 vectors produced by pass 10 Test12= 7.67D-14 3.33D-08 XBig12= 1.74D-10 3.07D-06.
      2 vectors produced by pass 11 Test12= 7.67D-14 3.33D-08 XBig12= 4.37D-12 3.72D-07.
      1 vectors produced by pass 12 Test12= 7.67D-14 3.33D-08 XBig12= 6.81D-14 4.94D-08.
 InvSVY:  IOpt=1 It=  1 EMax= 1.78D-15
 Solved reduced A of dimension    36 with     3 vectors.
 End of Minotr F.D. properties file   721 does not exist.
 End of Minotr F.D. properties file   722 does not exist.
 End of Minotr F.D. properties file   788 does not exist.
 Symmetrizing basis deriv contribution to polar:
 IMax=3 JMax=2 DiffMx= 0.00D+00
 G2DrvN: will do    14 centers at a time, making    1 passes.
 PxScal for G2LodP:  IOpCl= 0 ISclPx=1 IMOff=     1 NMtTot=     4 NTT=    6903 ScalPx= 1.51D+00
 Calling FoFCou, ICntrl=  3107 FMM=F I1Cent=   0 AccDes= 0.00D+00.
 End of G2Drv F.D. properties file   721 does not exist.
 End of G2Drv F.D. properties file   722 does not exist.
 End of G2Drv F.D. properties file   788 does not exist.
          IDoAtm=1111111111111
          Differentiating once with respect to electric field.
                with respect to dipole field.
          Differentiating once with respect to nuclear coordinates.
          There are    24 degrees of freedom in the 1st order CPHF.  IDoFFX=4 NUNeed=    24.
 Will reuse    3 saved solutions.
     21 vectors produced by pass  0 Test12= 9.58D-15 4.17D-09 XBig12= 6.06D-02 8.66D-02.
 AX will form    21 AO Fock derivatives at one time.
     21 vectors produced by pass  1 Test12= 9.58D-15 4.17D-09 XBig12= 4.05D-03 2.35D-02.
     21 vectors produced by pass  2 Test12= 9.58D-15 4.17D-09 XBig12= 2.87D-04 3.52D-03.
     21 vectors produced by pass  3 Test12= 9.58D-15 4.17D-09 XBig12= 5.15D-06 3.72D-04.
     21 vectors produced by pass  4 Test12= 9.58D-15 4.17D-09 XBig12= 9.12D-08 6.06D-05.
     21 vectors produced by pass  5 Test12= 9.58D-15 4.17D-09 XBig12= 1.15D-09 5.92D-06.
     21 vectors produced by pass  6 Test12= 9.58D-15 4.17D-09 XBig12= 7.14D-12 3.33D-07.
     12 vectors produced by pass  7 Test12= 9.58D-15 4.17D-09 XBig12= 5.19D-14 3.67D-08.
 InvSVY:  IOpt=1 It=  1 EMax= 2.50D-16
 Solved reduced A of dimension   159 with    24 vectors.
 Isotropic polarizability for W=    0.000000       57.72 Bohr**3.
 End of Minotr F.D. properties file   721 does not exist.
 End of Minotr F.D. properties file   722 does not exist.
 End of Minotr F.D. properties file   788 does not exist.

 **********************************************************************

            Population analysis using the SCF density.

 **********************************************************************

 Orbital symmetries:
       Occupied  (A') (A') (A") (A') (A") (A') (A") (A') (A') (A")
                 (A') (A") (A') (A') (A") (A') (A") (A') (A") (A')
                 (A") (A') (A') (A') (A")
       Virtual   (A') (A") (A') (A") (A') (A") (A') (A") (A") (A')
                 (A") (A") (A') (A') (A') (A") (A") (A') (A') (A")
                 (A') (A") (A') (A') (A") (A") (A') (A') (A") (A")
                 (A') (A") (A") (A') (A") (A") (A') (A') (A') (A")
                 (A') (A") (A') (A') (A") (A") (A') (A') (A") (A')
                 (A') (A") (A') (A") (A') (A") (A') (A') (A') (A")
                 (A") (A') (A") (A') (A") (A") (A') (A') (A") (A")
                 (A') (A') (A") (A') (A') (A") (A") (A") (A") (A')
                 (A') (A") (A') (A") (A") (A') (A') (A") (A') (A")
                 (A') (A")
 The electronic state is 1-A'.
 Alpha  occ. eigenvalues --  -20.59134 -11.30205 -11.30188 -11.23463 -11.23353
 Alpha  occ. eigenvalues --  -11.23105 -11.23101  -1.44913  -1.11352  -1.04617
 Alpha  occ. eigenvalues --   -0.94612  -0.87905  -0.79054  -0.73116  -0.71700
 Alpha  occ. eigenvalues --   -0.65112  -0.63278  -0.62852  -0.58316  -0.53352
 Alpha  occ. eigenvalues --   -0.51758  -0.47873  -0.45435  -0.32095  -0.31890
 Alpha virt. eigenvalues --    0.13326   0.14759   0.23630   0.27834   0.28742
 Alpha virt. eigenvalues --    0.30355   0.32736   0.33536   0.35910   0.36967
 Alpha virt. eigenvalues --    0.46059   0.49148   0.50398   0.51463   0.68022
 Alpha virt. eigenvalues --    0.68615   0.70720   0.73910   0.75588   0.77238
 Alpha virt. eigenvalues --    0.78605   0.81034   0.82263   0.84105   0.84636
 Alpha virt. eigenvalues --    0.87824   0.91338   0.95192   0.95485   1.05950
 Alpha virt. eigenvalues --    1.10448   1.10892   1.11351   1.11719   1.13300
 Alpha virt. eigenvalues --    1.14840   1.14988   1.17422   1.19986   1.22711
 Alpha virt. eigenvalues --    1.27790   1.30101   1.30277   1.36574   1.42713
 Alpha virt. eigenvalues --    1.52025   1.53002   1.61683   1.65239   1.67060
 Alpha virt. eigenvalues --    1.72751   1.75509   1.78870   1.85448   1.89109
 Alpha virt. eigenvalues --    2.00407   2.08749   2.14844   2.17019   2.20076
 Alpha virt. eigenvalues --    2.26230   2.26450   2.31463   2.36918   2.38048
 Alpha virt. eigenvalues --    2.46668   2.46695   2.54068   2.57919   2.62089
 Alpha virt. eigenvalues --    2.62929   2.76069   2.77232   2.79952   2.91763
 Alpha virt. eigenvalues --    2.94158   2.95299   3.00061   3.01161   3.06852
 Alpha virt. eigenvalues --    3.14379   3.31985   3.34781   3.35573   3.65786
 Alpha virt. eigenvalues --    4.33253   4.52069   4.58950   4.61937   4.77032
 Alpha virt. eigenvalues --    4.83786   5.03354
          Condensed to atoms (all electrons):
               1          2          3          4          5          6
     1  C    4.891831   0.552242  -0.051846  -0.015749  -0.052515   0.548411
     2  C    0.552242   4.970931   0.526476  -0.028906  -0.031671  -0.052515
     3  C   -0.051846   0.526476   4.821685   0.144169  -0.028906  -0.015749
     4  C   -0.015749  -0.028906   0.144169   4.821685   0.526476  -0.051846
     5  C   -0.052515  -0.031671  -0.028906   0.526476   4.970931   0.552242
     6  C    0.548411  -0.052515  -0.015749  -0.051846   0.552242   4.891831
     7  H    0.389125  -0.033533   0.002847   0.000230   0.002732  -0.034430
     8  H   -0.028412   0.379066  -0.031885   0.000675   0.000106   0.002127
     9  H    0.002127   0.000106   0.000675  -0.031885   0.379066  -0.028412
    10  H   -0.034430   0.002732   0.000230   0.002847  -0.033533   0.389125
    11  O   -0.000089  -0.059994   0.195021   0.195021  -0.059994  -0.000089
    12  H    0.000117  -0.000223   0.001297   0.396745  -0.047282   0.003298
    13  H    0.003298  -0.047282   0.396745   0.001297  -0.000223   0.000117
               7          8          9         10         11         12
     1  C    0.389125  -0.028412   0.002127  -0.034430  -0.000089   0.000117
     2  C   -0.033533   0.379066   0.000106   0.002732  -0.059994  -0.000223
     3  C    0.002847  -0.031885   0.000675   0.000230   0.195021   0.001297
     4  C    0.000230   0.000675  -0.031885   0.002847   0.195021   0.396745
     5  C    0.002732   0.000106   0.379066  -0.033533  -0.059994  -0.047282
     6  C   -0.034430   0.002127  -0.028412   0.389125  -0.000089   0.003298
     7  H    0.481768  -0.001772  -0.000126  -0.002779  -0.000011   0.000005
     8  H   -0.001772   0.471972   0.000015  -0.000126   0.001892   0.000006
     9  H   -0.000126   0.000015   0.471972  -0.001772   0.001892   0.000218
    10  H   -0.002779  -0.000126  -0.001772   0.481768  -0.000011  -0.000097
    11  O   -0.000011   0.001892   0.001892  -0.000011   8.331991  -0.039579
    12  H    0.000005   0.000006   0.000218  -0.000097  -0.039579   0.481670
    13  H   -0.000097   0.000218   0.000006   0.000005  -0.039579   0.000445
              13
     1  C    0.003298
     2  C   -0.047282
     3  C    0.396745
     4  C    0.001297
     5  C   -0.000223
     6  C    0.000117
     7  H   -0.000097
     8  H    0.000218
     9  H    0.000006
    10  H    0.000005
    11  O   -0.039579
    12  H    0.000445
    13  H    0.481670
 Mulliken charges:
               1
     1  C   -0.204111
     2  C   -0.177429
     3  C    0.039239
     4  C    0.039239
     5  C   -0.177429
     6  C   -0.204111
     7  H    0.196040
     8  H    0.206117
     9  H    0.206117
    10  H    0.196040
    11  O   -0.526473
    12  H    0.203381
    13  H    0.203381
 Sum of Mulliken charges =   0.00000
 Mulliken charges with hydrogens summed into heavy atoms:
               1
     1  C   -0.008071
     2  C    0.028688
     3  C    0.242620
     4  C    0.242620
     5  C    0.028688
     6  C   -0.008071
    11  O   -0.526473
 APT charges:
               1
     1  C   -0.012922
     2  C   -0.085855
     3  C    0.297736
     4  C    0.297736
     5  C   -0.085855
     6  C   -0.012922
     7  H    0.021052
     8  H    0.034834
     9  H    0.034834
    10  H    0.021052
    11  O   -0.529321
    12  H    0.009816
    13  H    0.009816
 Sum of APT charges =   0.00000
 APT charges with hydrogens summed into heavy atoms:
               1
     1  C    0.008130
     2  C   -0.051021
     3  C    0.307552
     4  C    0.307552
     5  C   -0.051021
     6  C    0.008130
    11  O   -0.529321
 Electronic spatial extent (au):  <R**2>=            570.6720
 Charge=              0.0000 electrons
 Dipole moment (field-independent basis, Debye):
    X=             -1.8937    Y=             -0.4206    Z=              0.0000  Tot=              1.9398
 Quadrupole moment (field-independent basis, Debye-Ang):
   XX=            -44.6074   YY=            -37.5673   ZZ=            -35.9891
   XY=             -3.4341   XZ=              0.0000   YZ=              0.0000
 Traceless Quadrupole moment (field-independent basis, Debye-Ang):
   XX=             -5.2195   YY=              1.8206   ZZ=              3.3988
   XY=             -3.4341   XZ=              0.0000   YZ=              0.0000
 Octapole moment (field-independent basis, Debye-Ang**2):
  XXX=              2.0231  YYY=              0.8600  ZZZ=              0.0000  XYY=             -2.4510
  XXY=              2.8556  XXZ=              0.0000  XZZ=             -5.2899  YZZ=              1.8184
  YYZ=              0.0000  XYZ=              0.0000
 Hexadecapole moment (field-independent basis, Debye-Ang**3):
 XXXX=            -81.4375 YYYY=           -333.3665 ZZZZ=           -304.6313 XXXY=              3.6048
 XXXZ=              0.0000 YYYX=             -9.9813 YYYZ=              0.0000 ZZZX=              0.0000
 ZZZY=              0.0000 XXYY=            -76.7743 XXZZ=            -66.7396 YYZZ=           -101.1517
 XXYZ=              0.0000 YYXZ=              0.0000 ZZXY=             -0.3098
 N-N= 2.828479297386D+02 E-N=-1.279918725828D+03  KE= 3.051339179160D+02
 Symmetry A'   KE= 1.889892254358D+02
 Symmetry A"   KE= 1.161446924802D+02
  Exact polarizability:  29.677  -7.410  70.188   0.000   0.000  73.307
 Approx polarizability:  32.500  -6.935  69.376   0.000   0.000  74.466
 Calling FoFJK, ICntrl=    100127 FMM=F ISym2X=1 I1Cent= 0 IOpClX= 0 NMat=1 NMatS=1 NMatT=0.
 Full mass-weighted force constant matrix:
 Low frequencies --- -777.2976   -0.0025   -0.0017   -0.0008    4.0143    5.0038
 Low frequencies ---    5.4245  335.0154  377.6774
 ******    1 imaginary frequencies (negative Signs) ****** 
 Diagonal vibrational polarizability:
        4.9692821       2.7766579       1.9225396
 Diagonal vibrational hyperpolarizability:
      -28.5541703      -4.2591820       0.0000043
 Harmonic frequencies (cm**-1), IR intensities (KM/Mole), Raman scattering
 activities (A**4/AMU), depolarization ratios for plane and unpolarized
 incident light, reduced masses (AMU), force constants (mDyne/A),
 and normal coordinates:
                      1                      2                      3
                     A'                     A'                     A"
 Frequencies --   -777.2976               335.0153               377.6774
 Red. masses --      6.2192                 5.2633                 3.1534
 Frc consts  --      2.2139                 0.3480                 0.2650
 IR Inten    --      4.4249                 3.0926                 1.1247
 Raman Activ --     10.2093                 3.7547                 1.5260
 Depolar (P) --      0.5105                 0.5999                 0.7500
 Depolar (U) --      0.6759                 0.7500                 0.8571
  Atom  AN      X      Y      Z        X      Y      Z        X      Y      Z
     1   6     0.03  -0.04  -0.10    -0.15  -0.17  -0.01    -0.19  -0.04  -0.01
     2   6    -0.05   0.09   0.03     0.19  -0.04  -0.02    -0.07   0.00  -0.01
     3   6     0.17  -0.02   0.39     0.05   0.00   0.03     0.20   0.04   0.08
     4   6     0.17  -0.02  -0.39     0.05   0.00  -0.03    -0.20  -0.04   0.08
     5   6    -0.05   0.09  -0.03     0.19  -0.04   0.02     0.07   0.00  -0.01
     6   6     0.03  -0.04   0.10    -0.15  -0.17   0.01     0.19   0.04  -0.01
     7   1     0.13   0.01  -0.03    -0.40  -0.19   0.03    -0.41  -0.08  -0.03
     8   1    -0.41  -0.07  -0.15     0.29   0.02   0.04    -0.16   0.06  -0.04
     9   1    -0.41  -0.07   0.15     0.29   0.02  -0.04     0.16  -0.06  -0.04
    10   1     0.13   0.01   0.03    -0.40  -0.19  -0.03     0.41   0.08  -0.03
    11   8    -0.20  -0.05   0.00    -0.11   0.36   0.00     0.00   0.00  -0.11
    12   1     0.04   0.00  -0.22    -0.11  -0.15  -0.13    -0.38  -0.08   0.22
    13   1     0.04   0.00   0.22    -0.11  -0.15   0.13     0.38   0.08   0.22
                      4                      5                      6
                     A'                     A"                     A"
 Frequencies --    506.5829               533.2941               708.5450
 Red. masses --      3.5310                 6.1264                 3.4420
 Frc consts  --      0.5339                 1.0266                 1.0181
 IR Inten    --      6.7157                 2.1161                 5.9008
 Raman Activ --      7.4595                 6.1715                 1.9723
 Depolar (P) --      0.6994                 0.7500                 0.7500
 Depolar (U) --      0.8231                 0.8571                 0.8571
  Atom  AN      X      Y      Z        X      Y      Z        X      Y      Z
     1   6    -0.08   0.09   0.02     0.06   0.21  -0.19     0.22   0.00   0.08
     2   6     0.16   0.03   0.20    -0.03   0.16  -0.10    -0.17  -0.05  -0.07
     3   6    -0.06  -0.01   0.06    -0.02   0.25   0.19     0.11  -0.03   0.04
     4   6    -0.06  -0.01  -0.06     0.02  -0.25   0.19    -0.11   0.03   0.04
     5   6     0.16   0.03  -0.20     0.03  -0.16  -0.10     0.17   0.05  -0.07
     6   6    -0.08   0.09  -0.02    -0.06  -0.21  -0.19    -0.22   0.00   0.08
     7   1    -0.06   0.05  -0.07     0.13   0.31  -0.01     0.37   0.03   0.09
     8   1     0.50   0.02   0.35     0.06  -0.08  -0.10    -0.39  -0.04  -0.16
     9   1     0.50   0.02  -0.35    -0.06   0.08  -0.10     0.39   0.04  -0.16
    10   1    -0.06   0.05   0.07    -0.13  -0.31  -0.01    -0.37  -0.03   0.09
    11   8    -0.09  -0.17   0.00     0.00   0.00   0.15     0.00   0.00  -0.08
    12   1     0.06   0.05  -0.07    -0.07  -0.28   0.22    -0.21   0.02   0.13
    13   1     0.06   0.05   0.07     0.07   0.28   0.22     0.21  -0.02   0.13
                      7                      8                      9
                     A'                     A'                     A"
 Frequencies --    785.3803               815.6022               893.9708
 Red. masses --      1.4682                 2.6010                 1.2683
 Frc consts  --      0.5336                 1.0194                 0.5972
 IR Inten    --     65.3459                27.5854                21.8244
 Raman Activ --      4.3735                 3.8999                 2.5826
 Depolar (P) --      0.6816                 0.4212                 0.7500
 Depolar (U) --      0.8107                 0.5928                 0.8571
  Atom  AN      X      Y      Z        X      Y      Z        X      Y      Z
     1   6    -0.01  -0.06   0.00    -0.05   0.04   0.02    -0.03   0.00   0.00
     2   6    -0.03  -0.01  -0.10    -0.12  -0.08   0.13    -0.08  -0.02  -0.02
     3   6    -0.03   0.07   0.02     0.07  -0.08   0.01    -0.05  -0.01  -0.01
     4   6    -0.03   0.07  -0.02     0.07  -0.08  -0.01     0.05   0.01  -0.01
     5   6    -0.03  -0.01   0.10    -0.12  -0.08  -0.13     0.08   0.02  -0.02
     6   6    -0.01  -0.06   0.00    -0.05   0.04  -0.02     0.03   0.00   0.00
     7   1     0.29   0.04   0.12     0.56   0.08  -0.06     0.23   0.05   0.04
     8   1     0.40   0.05   0.10     0.15   0.03   0.27     0.50   0.08   0.26
     9   1     0.40   0.05  -0.10     0.15   0.03  -0.27    -0.50  -0.08   0.26
    10   1     0.29   0.04  -0.12     0.56   0.08   0.06    -0.23  -0.05   0.04
    11   8    -0.02  -0.03   0.00     0.06   0.16   0.00     0.00   0.00  -0.03
    12   1     0.31   0.11  -0.30     0.05  -0.09  -0.01    -0.25  -0.04   0.20
    13   1     0.31   0.11   0.30     0.05  -0.09   0.01     0.25   0.04   0.20
                     10                     11                     12
                     A'                     A"                     A'
 Frequencies --    926.9124               974.6093              1044.0228
 Red. masses --      1.3539                 2.7431                 1.4252
 Frc consts  --      0.6854                 1.5352                 0.9153
 IR Inten    --     18.0512                 0.7483                 6.4138
 Raman Activ --      1.4633                 0.2194                 2.9380
 Depolar (P) --      0.7500                 0.7500                 0.1374
 Depolar (U) --      0.8571                 0.8571                 0.2415
  Atom  AN      X      Y      Z        X      Y      Z        X      Y      Z
     1   6    -0.06  -0.06  -0.02    -0.03   0.12  -0.10     0.03   0.05  -0.02
     2   6     0.04   0.06  -0.03    -0.09  -0.04   0.17    -0.07  -0.03  -0.07
     3   6     0.01   0.01  -0.01     0.06  -0.05   0.03     0.05  -0.01   0.04
     4   6     0.01   0.01   0.01    -0.06   0.05   0.03     0.05  -0.01  -0.04
     5   6     0.04   0.06   0.03     0.09   0.04   0.17    -0.07  -0.03   0.07
     6   6    -0.06  -0.06   0.02     0.03  -0.12  -0.10     0.03   0.05   0.02
     7   1     0.42   0.07   0.12     0.19   0.14  -0.11    -0.29   0.00  -0.05
     8   1     0.02   0.14  -0.03     0.03  -0.18   0.21     0.47  -0.02   0.16
     9   1     0.02   0.14   0.03    -0.03   0.18   0.21     0.47  -0.02  -0.16
    10   1     0.42   0.07  -0.12    -0.19  -0.14  -0.11    -0.29   0.00   0.05
    11   8     0.00  -0.05   0.00     0.00   0.00  -0.11    -0.01  -0.01   0.00
    12   1    -0.37  -0.01   0.36     0.30  -0.01  -0.44    -0.30  -0.06   0.24
    13   1    -0.37  -0.01  -0.36    -0.30   0.01  -0.44    -0.30  -0.06  -0.24
                     13                     14                     15
                     A"                     A'                     A"
 Frequencies --   1057.5685              1062.5913              1070.0642
 Red. masses --      4.3051                 3.9138                 1.7653
 Frc consts  --      2.8369                 2.6036                 1.1909
 IR Inten    --      2.5511                11.2943                 0.2254
 Raman Activ --      1.0511                42.9300                 1.0203
 Depolar (P) --      0.7500                 0.0707                 0.7500
 Depolar (U) --      0.8571                 0.1321                 0.8571
  Atom  AN      X      Y      Z        X      Y      Z        X      Y      Z
     1   6    -0.03   0.15   0.00    -0.10   0.17  -0.15    -0.03  -0.10   0.03
     2   6     0.00   0.05  -0.06     0.08   0.01  -0.16    -0.02   0.00  -0.09
     3   6     0.19  -0.16  -0.13     0.04  -0.17  -0.07     0.09   0.07   0.05
     4   6    -0.19   0.16  -0.13     0.04  -0.17   0.07    -0.09  -0.07   0.05
     5   6     0.00  -0.05  -0.06     0.08   0.01   0.16     0.02   0.00  -0.09
     6   6     0.03  -0.15   0.00    -0.10   0.17   0.15     0.03   0.10   0.03
     7   1    -0.01   0.28   0.24     0.20   0.20  -0.21     0.24  -0.07   0.02
     8   1     0.11   0.30   0.02    -0.01  -0.03  -0.22     0.25   0.13   0.05
     9   1    -0.11  -0.30   0.02    -0.01  -0.03   0.22    -0.25  -0.13   0.05
    10   1     0.01  -0.28   0.24     0.20   0.20   0.21    -0.24   0.07   0.02
    11   8     0.00   0.00   0.25    -0.07  -0.01   0.00     0.00   0.00   0.04
    12   1    -0.03   0.35   0.04     0.17  -0.30  -0.27     0.47   0.05  -0.32
    13   1     0.03  -0.35   0.04     0.17  -0.30   0.27    -0.47  -0.05  -0.32
                     16                     17                     18
                     A"                     A'                     A"
 Frequencies --   1104.5170              1159.5329              1214.9780
 Red. masses --      1.2801                 1.7533                 1.7854
 Frc consts  --      0.9201                 1.3889                 1.5528
 IR Inten    --      0.5081                10.5455                10.7153
 Raman Activ --      0.2556                 1.2093                 2.6143
 Depolar (P) --      0.7500                 0.1445                 0.7500
 Depolar (U) --      0.8571                 0.2525                 0.8571
  Atom  AN      X      Y      Z        X      Y      Z        X      Y      Z
     1   6    -0.09  -0.03  -0.02     0.04  -0.02   0.07    -0.05   0.05   0.04
     2   6     0.04   0.02   0.02    -0.03   0.07   0.01     0.04  -0.03  -0.08
     3   6    -0.01   0.00  -0.01     0.06  -0.08  -0.06    -0.04  -0.06   0.08
     4   6     0.01   0.00  -0.01     0.06  -0.08   0.06     0.04   0.06   0.08
     5   6    -0.04  -0.02   0.02    -0.03   0.07  -0.01    -0.04   0.03  -0.08
     6   6     0.09   0.03  -0.02     0.04  -0.02  -0.07     0.05  -0.05   0.04
     7   1     0.60   0.09   0.04    -0.13  -0.01   0.15    -0.03   0.27   0.43
     8   1    -0.29   0.01  -0.12     0.00   0.62   0.10     0.06  -0.32  -0.13
     9   1     0.29  -0.01  -0.12     0.00   0.62  -0.10    -0.06   0.32  -0.13
    10   1    -0.60  -0.09   0.04    -0.13  -0.01  -0.15     0.03  -0.27   0.43
    11   8     0.00   0.00   0.01    -0.10  -0.01   0.00     0.00   0.00  -0.10
    12   1    -0.10  -0.02   0.07     0.12  -0.12  -0.06     0.20   0.18   0.09
    13   1     0.10   0.02   0.07     0.12  -0.12   0.06    -0.20  -0.18   0.09
                     19                     20                     21
                     A'                     A"                     A'
 Frequencies --   1301.5863              1324.3673              1364.1546
 Red. masses --      1.1602                 1.3503                 1.9167
 Frc consts  --      1.1581                 1.3954                 2.1015
 IR Inten    --      0.8211                 1.7611                29.5481
 Raman Activ --      4.2055                 2.8359                 4.2711
 Depolar (P) --      0.7387                 0.7500                 0.4338
 Depolar (U) --      0.8497                 0.8571                 0.6051
  Atom  AN      X      Y      Z        X      Y      Z        X      Y      Z
     1   6    -0.01   0.03   0.07     0.01   0.01  -0.03     0.01  -0.01  -0.01
     2   6     0.01  -0.01  -0.01     0.00   0.04   0.00     0.00   0.04  -0.01
     3   6     0.01  -0.02   0.02    -0.04  -0.05   0.07    -0.10  -0.03   0.08
     4   6     0.01  -0.02  -0.02     0.04   0.05   0.07    -0.10  -0.03  -0.08
     5   6     0.01  -0.01   0.01     0.00  -0.04   0.00     0.00   0.04   0.01
     6   6    -0.01   0.03  -0.07    -0.01  -0.01  -0.03     0.01  -0.01   0.01
     7   1    -0.06   0.30   0.58     0.00  -0.04  -0.13    -0.03  -0.01   0.00
     8   1    -0.02  -0.23  -0.05    -0.10   0.55   0.04     0.01   0.27   0.03
     9   1    -0.02  -0.23   0.05     0.10  -0.55   0.04     0.01   0.27  -0.03
    10   1    -0.06   0.30  -0.58     0.00   0.04  -0.13    -0.03  -0.01   0.00
    11   8     0.00   0.00   0.00     0.00   0.00  -0.07     0.18   0.01   0.00
    12   1    -0.04  -0.08  -0.05     0.21   0.24   0.21    -0.32  -0.35  -0.41
    13   1    -0.04  -0.08   0.05    -0.21  -0.24   0.21    -0.32  -0.35   0.41
                     22                     23                     24
                     A"                     A'                     A'
 Frequencies --   1491.9530              1510.9464              1593.2513
 Red. masses --      1.2081                 2.7415                 1.8088
 Frc consts  --      1.5844                 3.6876                 2.7052
 IR Inten    --      1.6700                10.3521                 9.7286
 Raman Activ --      1.1812                 7.1156                 0.0979
 Depolar (P) --      0.7500                 0.5817                 0.5952
 Depolar (U) --      0.8571                 0.7355                 0.7462
  Atom  AN      X      Y      Z        X      Y      Z        X      Y      Z
     1   6    -0.01   0.02   0.04    -0.04   0.06   0.15    -0.01   0.05  -0.01
     2   6    -0.02   0.04   0.02     0.03  -0.12  -0.03     0.05  -0.14  -0.04
     3   6     0.02   0.04  -0.05     0.09   0.13  -0.02    -0.05   0.00   0.08
     4   6    -0.02  -0.04  -0.05     0.09   0.13   0.02    -0.05   0.00  -0.08
     5   6     0.02  -0.04   0.02     0.03  -0.12   0.03     0.05  -0.14   0.04
     6   6     0.01  -0.02   0.04    -0.04   0.06  -0.15    -0.01   0.05   0.01
     7   1     0.06  -0.14  -0.29     0.15  -0.11  -0.22    -0.02   0.13   0.10
     8   1     0.06  -0.32   0.00    -0.16   0.10  -0.08    -0.14   0.50  -0.03
     9   1    -0.06   0.32   0.00    -0.16   0.10   0.08    -0.14   0.50   0.03
    10   1    -0.06   0.14  -0.29     0.15  -0.11   0.22    -0.02   0.13  -0.10
    11   8     0.00   0.00  -0.01    -0.08  -0.07   0.00     0.02   0.02   0.00
    12   1     0.22   0.32   0.36    -0.34  -0.29  -0.31     0.12   0.29   0.24
    13   1    -0.22  -0.32   0.36    -0.34  -0.29   0.31     0.12   0.29  -0.24
                     25                     26                     27
                     A"                     A'                     A"
 Frequencies --   1613.4776              1722.2202              1771.3482
 Red. masses --      1.8711                 3.3387                 4.8914
 Frc consts  --      2.8700                 5.8345                 9.0426
 IR Inten    --      0.6016                12.4863                 0.0001
 Raman Activ --      2.0967                 9.3544                17.9498
 Depolar (P) --      0.7500                 0.6857                 0.7500
 Depolar (U) --      0.8571                 0.8136                 0.8571
  Atom  AN      X      Y      Z        X      Y      Z        X      Y      Z
     1   6     0.03  -0.07  -0.08    -0.03   0.03   0.24     0.05  -0.20  -0.11
     2   6    -0.01  -0.07   0.08     0.02   0.08  -0.10    -0.07   0.31   0.05
     3   6     0.02   0.11  -0.07    -0.05  -0.12   0.10     0.01  -0.14   0.03
     4   6    -0.02  -0.11  -0.07    -0.05  -0.12  -0.10    -0.01   0.14   0.03
     5   6     0.01   0.07   0.08     0.02   0.08   0.10     0.07  -0.31   0.05
     6   6    -0.03   0.07  -0.08    -0.03   0.03  -0.24    -0.05   0.20  -0.11
     7   1    -0.10   0.21   0.49     0.12  -0.27  -0.33    -0.07   0.00   0.35
     8   1    -0.07   0.12   0.10     0.09  -0.20  -0.13     0.11  -0.41   0.03
     9   1     0.07  -0.12   0.10     0.09  -0.20   0.13    -0.11   0.41   0.03
    10   1     0.10  -0.21   0.49     0.12  -0.27   0.33     0.07   0.00   0.35
    11   8     0.00   0.00   0.00     0.04   0.04   0.00     0.00   0.00   0.00
    12   1     0.17   0.18   0.28     0.19   0.19   0.24    -0.06   0.10  -0.05
    13   1    -0.17  -0.18   0.28     0.19   0.19  -0.24     0.06  -0.10  -0.05
                     28                     29                     30
                     A"                     A'                     A"
 Frequencies --   3346.0860              3354.7262              3362.8920
 Red. masses --      1.0850                 1.0878                 1.0908
 Frc consts  --      7.1571                 7.2129                 7.2682
 IR Inten    --      0.1314                 1.0003                10.8180
 Raman Activ --     25.2409               130.6857                94.9574
 Depolar (P) --      0.7500                 0.7277                 0.7500
 Depolar (U) --      0.8571                 0.8424                 0.8571
  Atom  AN      X      Y      Z        X      Y      Z        X      Y      Z
     1   6     0.01  -0.04   0.02     0.00  -0.02   0.01    -0.01   0.03  -0.01
     2   6     0.01   0.01  -0.03     0.02   0.01  -0.05     0.02   0.00  -0.04
     3   6    -0.01   0.01   0.01    -0.01   0.01   0.01    -0.01   0.02   0.01
     4   6     0.01  -0.01   0.01    -0.01   0.01  -0.01     0.01  -0.02   0.01
     5   6    -0.01  -0.01  -0.03     0.02   0.01   0.05    -0.02   0.00  -0.04
     6   6    -0.01   0.04   0.02     0.00  -0.02  -0.01     0.01  -0.03  -0.01
     7   1    -0.06   0.49  -0.26    -0.03   0.27  -0.14     0.05  -0.38   0.19
     8   1    -0.16  -0.06   0.37    -0.24  -0.08   0.54    -0.18  -0.06   0.41
     9   1     0.16   0.06   0.37    -0.24  -0.08  -0.54     0.18   0.06   0.41
    10   1     0.06  -0.49  -0.26    -0.03   0.27   0.14    -0.05   0.38   0.19
    11   8     0.00   0.00   0.00     0.00   0.00   0.00     0.00   0.00   0.00
    12   1    -0.07   0.12  -0.07     0.10  -0.16   0.10    -0.15   0.26  -0.15
    13   1     0.07  -0.12  -0.07     0.10  -0.16  -0.10     0.15  -0.26  -0.15
                     31                     32                     33
                     A'                     A"                     A'
 Frequencies --   3375.6110              3382.4827              3389.2709
 Red. masses --      1.0944                 1.0959                 1.0968
 Frc consts  --      7.3472                 7.3876                 7.4233
 IR Inten    --     51.6187                36.1343                12.3891
 Raman Activ --     63.8833                55.3337               317.9826
 Depolar (P) --      0.1285                 0.7500                 0.0822
 Depolar (U) --      0.2278                 0.8571                 0.1520
  Atom  AN      X      Y      Z        X      Y      Z        X      Y      Z
     1   6     0.01  -0.05   0.03     0.00  -0.01   0.00     0.00   0.02  -0.01
     2   6    -0.01   0.00   0.02    -0.01  -0.01   0.03     0.01   0.01  -0.03
     3   6     0.01  -0.02  -0.01    -0.02   0.04   0.02     0.02  -0.04  -0.02
     4   6     0.01  -0.02   0.01     0.02  -0.04   0.02     0.02  -0.04   0.02
     5   6    -0.01   0.00  -0.02     0.01   0.01   0.03     0.01   0.01   0.03
     6   6     0.01  -0.05  -0.03     0.00   0.01   0.00     0.00   0.02   0.01
     7   1    -0.06   0.53  -0.28    -0.01   0.08  -0.04     0.02  -0.18   0.09
     8   1     0.08   0.02  -0.18     0.14   0.05  -0.32    -0.12  -0.05   0.29
     9   1     0.08   0.02   0.18    -0.14  -0.05  -0.32    -0.12  -0.05  -0.29
    10   1    -0.06   0.53   0.28     0.01  -0.08  -0.04     0.02  -0.18  -0.09
    11   8     0.00   0.00   0.00     0.00   0.00   0.00     0.00   0.00   0.00
    12   1    -0.14   0.24  -0.14    -0.27   0.47  -0.26    -0.27   0.46  -0.26
    13   1    -0.14   0.24   0.14     0.27  -0.47  -0.26    -0.27   0.46   0.26

 -------------------
 - Thermochemistry -
 -------------------
 Temperature   298.150 Kelvin.  Pressure   1.00000 Atm.
 Atom     1 has atomic number  6 and mass  12.00000
 Atom     2 has atomic number  6 and mass  12.00000
 Atom     3 has atomic number  6 and mass  12.00000
 Atom     4 has atomic number  6 and mass  12.00000
 Atom     5 has atomic number  6 and mass  12.00000
 Atom     6 has atomic number  6 and mass  12.00000
 Atom     7 has atomic number  1 and mass   1.00783
 Atom     8 has atomic number  1 and mass   1.00783
 Atom     9 has atomic number  1 and mass   1.00783
 Atom    10 has atomic number  1 and mass   1.00783
 Atom    11 has atomic number  8 and mass  15.99491
 Atom    12 has atomic number  1 and mass   1.00783
 Atom    13 has atomic number  1 and mass   1.00783
 Molecular mass:    94.04186 amu.
 Principal axes and moments of inertia in atomic units:
                           1         2         3
     Eigenvalues --   405.32464 473.06039 779.91628
           X            0.02373   0.00000   0.99972
           Y            0.99972   0.00000  -0.02373
           Z            0.00000   1.00000   0.00000
 This molecule is an asymmetric top.
 Rotational symmetry number  1.
 Rotational temperatures (Kelvin)      0.21369     0.18309     0.11106
 Rotational constants (GHZ):           4.45258     3.81503     2.31402
    1 imaginary frequencies ignored.
 Zero-point vibrational energy     289946.3 (Joules/Mol)
                                   69.29883 (Kcal/Mol)
 Warning -- explicit consideration of   4 degrees of freedom as
           vibrations may cause significant error
 Vibrational temperatures:    482.01   543.39   728.86   767.29  1019.44
          (Kelvin)           1129.99  1173.47  1286.22  1333.62  1402.24
                             1502.11  1521.60  1528.83  1539.58  1589.15
                             1668.31  1748.08  1872.69  1905.47  1962.71
                             2146.58  2173.91  2292.33  2321.43  2477.89
                             2548.57  4814.27  4826.70  4838.45  4856.75
                             4866.63  4876.40
 
 Zero-point correction=                           0.110435 (Hartree/Particle)
 Thermal correction to Energy=                    0.115035
 Thermal correction to Enthalpy=                  0.115979
 Thermal correction to Gibbs Free Energy=         0.082153
 Sum of electronic and zero-point Energies=           -305.351845
 Sum of electronic and thermal Energies=              -305.347245
 Sum of electronic and thermal Enthalpies=            -305.346301
 Sum of electronic and thermal Free Energies=         -305.380127
 
                     E (Thermal)             CV                S
                      KCal/Mol        Cal/Mol-Kelvin    Cal/Mol-Kelvin
 Total                   72.185             17.681             71.193
 Electronic               0.000              0.000              0.000
 Translational            0.889              2.981             39.535
 Rotational               0.889              2.981             26.506
 Vibrational             70.408             11.720              5.153
 Vibration     1          0.716              1.606              1.236
 Vibration     2          0.748              1.518              1.048
 Vibration     3          0.862              1.235              0.642
 Vibration     4          0.888              1.176              0.580
                       Q            Log10(Q)             Ln(Q)
 Total Bot       0.163104D-37        -37.787535        -87.009014
 Total V=0       0.102047D+14         13.008801         29.953871
 Vib (Bot)       0.328699D-50        -50.483202       -116.241868
 Vib (Bot)    1  0.555995D+00         -0.254929         -0.586995
 Vib (Bot)    2  0.479506D+00         -0.319206         -0.734998
 Vib (Bot)    3  0.322534D+00         -0.491424         -1.131545
 Vib (Bot)    4  0.298968D+00         -0.524375         -1.207419
 Vib (V=0)       0.205652D+01          0.313134          0.721017
 Vib (V=0)    1  0.124775D+01          0.096128          0.221342
 Vib (V=0)    2  0.119277D+01          0.076556          0.176276
 Vib (V=0)    3  0.109500D+01          0.039415          0.090757
 Vib (V=0)    4  0.108256D+01          0.034454          0.079333
 Electronic      0.100000D+01          0.000000          0.000000
 Translational   0.358457D+08          7.554437         17.394734
 Rotational      0.138430D+06          5.141230         11.838120
 ***** Axes restored to original set *****
 -------------------------------------------------------------------
 Center     Atomic                   Forces (Hartrees/Bohr)
 Number     Number              X              Y              Z
 -------------------------------------------------------------------
      1        6          -0.000012389    0.000030521   -0.000001641
      2        6          -0.000015967    0.000010963   -0.000009972
      3        6           0.000061879    0.000009005    0.000008669
      4        6           0.000061879   -0.000009005    0.000008669
      5        6          -0.000015967   -0.000010963   -0.000009972
      6        6          -0.000012389   -0.000030521   -0.000001641
      7        1           0.000021109   -0.000011654   -0.000001577
      8        1           0.000003521   -0.000020632    0.000010468
      9        1           0.000003521    0.000020632    0.000010468
     10        1           0.000021109    0.000011654   -0.000001577
     11        8          -0.000020421    0.000000000   -0.000065108
     12        1          -0.000047943    0.000033325    0.000026607
     13        1          -0.000047943   -0.000033325    0.000026607
 -------------------------------------------------------------------
 Cartesian Forces:  Max     0.000065108 RMS     0.000025943

 GradGradGradGradGradGradGradGradGradGradGradGradGradGradGradGradGradGrad
 Berny optimization.
 Search for a local minimum.
 Step number   1 out of a maximum of    2
 All quantities printed in internal units (Hartrees-Bohrs-Radians)
 Second derivative matrix not updated -- analytic derivatives used.
 ITU=  0
     Eigenvalues ---   -0.23223   0.01426   0.01711   0.02899   0.03290
     Eigenvalues ---    0.04382   0.05676   0.05905   0.06455   0.06680
     Eigenvalues ---    0.07644   0.09942   0.10606   0.11932   0.17281
     Eigenvalues ---    0.17771   0.20108   0.21762   0.23745   0.25052
     Eigenvalues ---    0.30612   0.36969   0.47847   0.63056   0.79097
     Eigenvalues ---    0.83773   1.02154   1.03152   1.12823   1.18669
     Eigenvalues ---    1.23645   1.37587   1.47801
 Eigenvalue     1 is  -2.32D-01 should be greater than     0.000000 Eigenvector:
                          Y4        Y3        Z11       Z3        Z4
   1                   -0.55970   0.55970  -0.32719   0.24165   0.24165
                          X2        X5        Y1        Y6        Z9
   1                    0.13269   0.13269  -0.13136   0.13136  -0.11714
 Angle between quadratic step and forces=  49.13 degrees.
 ClnCor:  largest displacement from symmetrization is 2.59D-11 for atom    10.
 Linear search not attempted -- first point.
 ClnCor:  largest displacement from symmetrization is 4.44D-16 for atom    12.
 B after Tr=     0.000000    0.000000   -0.000006
         Rot=    1.000000    0.000000    0.000000    0.000000 Ang=   0.00 deg.
 Variable       Old X    -DE/DX   Delta X   Delta X   Delta X     New X
                                 (Linear)    (Quad)   (Total)
    X1       -2.64533  -0.00001   0.00000   0.00000   0.00000  -2.64533
    Y1        1.31844   0.00003   0.00000   0.00001   0.00001   1.31845
    Z1        0.30513   0.00000   0.00000  -0.00002  -0.00002   0.30511
    X2       -0.57157  -0.00002   0.00000   0.00001   0.00001  -0.57156
    Y2        2.71714   0.00001   0.00000  -0.00001  -0.00001   2.71713
    Z2       -0.44902  -0.00001   0.00000  -0.00001  -0.00002  -0.44904
    X3        1.85276   0.00006   0.00000   0.00001   0.00001   1.85277
    Y3        1.71886   0.00001   0.00000   0.00004   0.00004   1.71890
    Z3       -0.43286   0.00001   0.00000   0.00006   0.00006  -0.43280
    X4        1.85276   0.00006   0.00000   0.00001   0.00001   1.85277
    Y4       -1.71886  -0.00001   0.00000  -0.00004  -0.00004  -1.71890
    Z4       -0.43286   0.00001   0.00000   0.00006   0.00006  -0.43280
    X5       -0.57157  -0.00002   0.00000   0.00001   0.00001  -0.57156
    Y5       -2.71714  -0.00001   0.00000   0.00001   0.00001  -2.71713
    Z5       -0.44902  -0.00001   0.00000  -0.00001  -0.00002  -0.44904
    X6       -2.64533  -0.00001   0.00000   0.00000   0.00000  -2.64533
    Y6       -1.31844  -0.00003   0.00000  -0.00001  -0.00001  -1.31845
    Z6        0.30513   0.00000   0.00000  -0.00002  -0.00002   0.30511
    X7       -4.43396   0.00002   0.00000   0.00006   0.00006  -4.43390
    Y7        2.26283  -0.00001   0.00000  -0.00002  -0.00002   2.26281
    Z7        0.51179   0.00000   0.00000  -0.00001  -0.00002   0.51178
    X8       -0.84308   0.00000   0.00000   0.00004   0.00004  -0.84304
    Y8        4.56454  -0.00002   0.00000  -0.00004  -0.00004   4.56450
    Z8       -1.25440   0.00001   0.00000   0.00006   0.00005  -1.25435
    X9       -0.84308   0.00000   0.00000   0.00004   0.00004  -0.84304
    Y9       -4.56454   0.00002   0.00000   0.00004   0.00004  -4.56450
    Z9       -1.25440   0.00001   0.00000   0.00006   0.00005  -1.25435
   X10       -4.43396   0.00002   0.00000   0.00006   0.00006  -4.43390
   Y10       -2.26283   0.00001   0.00000   0.00002   0.00002  -2.26281
   Z10        0.51179   0.00000   0.00000  -0.00001  -0.00002   0.51178
   X11        2.51073  -0.00002   0.00000  -0.00003  -0.00004   2.51069
   Y11        0.00000   0.00000   0.00000   0.00000   0.00000   0.00000
   Z11        1.38816  -0.00007   0.00000  -0.00010  -0.00010   1.38805
   X12        3.41901  -0.00005   0.00000  -0.00010  -0.00010   3.41890
   Y12       -2.63152   0.00003   0.00000   0.00018   0.00018  -2.63134
   Z12       -1.34962   0.00003   0.00000   0.00000   0.00000  -1.34962
   X13        3.41901  -0.00005   0.00000  -0.00010  -0.00010   3.41890
   Y13        2.63152  -0.00003   0.00000  -0.00018  -0.00018   2.63134
   Z13       -1.34962   0.00003   0.00000   0.00000   0.00000  -1.34962
         Item               Value     Threshold  Converged?
 Maximum Force            0.000065     0.000450     YES
 RMS     Force            0.000026     0.000300     YES
 Maximum Displacement     0.000182     0.001800     YES
 RMS     Displacement     0.000058     0.001200     YES
 Predicted change in Energy=-1.993488D-08
 Optimization completed.
    -- Stationary point found.
 GradGradGradGradGradGradGradGradGradGradGradGradGradGradGradGradGradGrad

 1\1\GINC-QC0019\Freq\RHF\6-31G(d)\C6H6O1\ELIOT\05-Oct-2018\0\\# freq h
 f/6-31g*\\ts-hf.log\\0,1\C,-1.39985,0.69769,0.16147\C,-0.30246,1.43785
 ,-0.23761\C,0.98044,0.90958,-0.22906\C,0.98044,-0.90958,-0.22906\C,-0.
 30246,-1.43785,-0.23761\C,-1.39985,-0.69769,0.16147\H,-2.34635,1.19744
 ,0.27083\H,-0.44614,2.41545,-0.6638\H,-0.44614,-2.41545,-0.6638\H,-2.3
 4635,-1.19744,0.27083\O,1.32862,0.,0.73458\H,1.80926,-1.39254,-0.71419
 \H,1.80926,1.39254,-0.71419\\Version=ES64L-G09RevE.01\State=1-A'\HF=-3
 05.4622796\RMSD=3.931e-09\RMSF=2.594e-05\ZeroPoint=0.1104347\Thermal=0
 .1150347\Dipole=-0.1605051,0.,-0.7461118\DipoleDeriv=0.0652872,-0.0745
 364,-0.0405243,-0.1614488,0.0471691,0.0267783,-0.0266957,0.0650488,-0.
 1512213,-0.0618251,-0.0909163,-0.0135811,-0.07008,-0.0742255,-0.087307
 1,0.0270999,-0.1801788,-0.1215154,0.3716052,0.0981648,-0.0214694,0.125
 1938,0.2522366,-0.258304,0.1438652,-0.0909477,0.2693655,0.3716052,-0.0
 981648,-0.0214694,-0.1251938,0.2522366,0.258304,0.1438652,0.0909477,0.
 2693655,-0.0618251,0.0909163,-0.0135811,0.07008,-0.0742255,0.0873071,0
 .0270999,0.1801788,-0.1215154,0.0652872,0.0745364,-0.0405243,0.1614488
 ,0.0471691,-0.0267783,-0.0266957,-0.0650488,-0.1512213,-0.0875807,0.08
 85651,0.0451081,0.0808506,0.0227809,-0.007949,0.0202656,0.0198226,0.12
 79557,0.076296,0.0306908,0.0066459,0.0223591,-0.0769506,0.0792083,0.00
 92787,0.1026894,0.1051565,0.076296,-0.0306908,0.0066459,-0.0223591,-0.
 0769506,-0.0792083,0.0092787,-0.1026894,0.1051565,-0.0875807,-0.088565
 1,0.0451081,-0.0808506,0.0227809,0.007949,0.0202656,-0.0198226,0.12795
 57,-0.6062254,0.,-0.074719,-0.0000002,-0.3739325,-0.0000001,-0.3319266
 ,0.,-0.607805,-0.0606698,0.0568848,0.0611803,0.092082,0.0159557,-0.084
 1274,-0.0078504,-0.0703994,0.0741615,-0.0606698,-0.0568848,0.0611803,-
 0.092082,0.0159557,0.0841274,-0.0078504,0.0703994,0.0741615\Polar=70.2
 853147,0.,73.3074451,-7.1395866,0.,29.5798716\PolarDeriv=-0.9994872,0.
 1325168,-0.7599675,-1.3413329,0.8908488,0.4468898,-0.6099229,0.7374301
 ,1.2743127,-2.4668909,0.0512228,1.0084288,0.3944581,-2.132874,-1.01803
 97,-2.5437306,2.3423434,2.2414359,2.0934314,-2.7942357,-2.0849498,1.67
 09926,0.4016371,-0.7042831,1.3000377,0.1766614,1.3218145,-0.7416985,2.
 1905053,-0.5801079,-1.9460325,0.4917777,4.2883595,-0.1922305,1.686686,
 -0.7530614,-0.4719572,2.7049341,3.810057,-0.0299844,0.4221587,-0.63506
 6,5.2644722,-1.145287,0.0117187,3.3963544,1.206282,-0.4465788,4.252083
 3,2.1027131,-0.0454576,0.949897,1.6826928,-0.8603834,-0.4719572,-2.704
 9341,3.810057,-0.0299844,-0.4221587,-0.635066,-5.2644722,-1.145287,-0.
 0117187,-3.3963544,1.206282,0.4465788,4.2520833,-2.1027131,-0.0454576,
 0.949897,-1.6826928,-0.8603834,2.0934314,2.7942357,-2.0849498,1.670992
 6,-0.4016371,-0.7042831,-1.3000377,0.1766614,-1.3218145,0.7416985,2.19
 05053,0.5801079,-1.9460325,-0.4917777,4.2883595,-0.1922305,-1.686686,-
 0.7530614,-0.9994872,-0.1325168,-0.7599675,-1.3413329,-0.8908488,0.446
 8898,0.6099229,0.7374301,-1.2743127,2.4668909,0.0512228,-1.0084288,0.3
 944581,2.132874,-1.0180397,-2.5437306,-2.3423434,2.2414359,-8.1826025,
 3.6924432,-1.7427014,1.1709573,-0.4983627,-0.5113066,2.9544167,-2.7808
 286,2.5133708,-0.4812739,0.4908294,0.2433062,0.5950611,-0.1103466,0.69
 126,-1.1838601,0.6398021,0.3064114,-0.3826555,1.6934277,-0.9427734,-0.
 5114202,0.3184834,-0.1529568,0.405743,-0.7177448,9.9971791,0.1587454,-
 2.7518596,0.96604,-0.1500699,0.9688105,-3.3248163,-0.4508373,2.3697239
 ,-1.5882797,-0.3826555,-1.6934277,-0.9427734,-0.5114202,-0.3184834,-0.
 1529568,-0.405743,-0.7177448,-9.9971791,-0.1587454,-2.7518596,-0.96604
 ,-0.1500699,-0.9688105,-3.3248163,-0.4508373,-2.3697239,-1.5882797,-8.
 1826025,-3.6924432,-1.7427014,1.1709573,0.4983627,-0.5113066,-2.954416
 7,-2.7808286,-2.5133708,0.4812739,0.4908294,-0.2433062,0.5950611,0.110
 3466,0.69126,-1.1838601,-0.6398021,0.3064114,2.7860436,0.0000005,-0.04
 72396,2.1091249,-0.0000006,0.9288748,0.0000046,2.496605,-0.000004,-0.0
 000005,0.6325513,-0.0000013,-1.7703501,0.000001,2.0144535,2.8516519,-0
 .0000008,5.3604944,6.5502506,-3.2581988,1.7439545,-2.0137756,1.1788216
 ,1.0922848,-2.4018643,2.4814681,-2.3458258,1.2764928,-1.5032564,-0.641
 2467,-2.2603226,1.6107597,-1.5985338,1.9949352,-1.4123817,-2.0263708,6
 .5502506,3.2581988,1.7439545,-2.0137756,-1.1788216,1.0922848,2.4018643
 ,2.4814681,2.3458258,-1.2764928,-1.5032564,0.6412467,-2.2603226,-1.610
 7597,-1.5985338,1.9949352,1.4123817,-2.0263708\HyperPolar=-30.597684,0
 .,-8.6872236,0.,-19.9001243,0.,-42.0026411,9.0346527,0.,-11.6442917\PG
 =CS [SG(O1),X(C6H6)]\NImag=1\\0.78012358,-0.03411187,0.73241192,-0.133
 63555,-0.04291197,0.20038394,-0.28354652,-0.02936461,0.05498876,0.7417
 8181,-0.13345608,-0.20923817,0.06572154,-0.02775397,0.72445693,0.08120
 223,0.05266691,-0.10390200,-0.06114370,-0.22990098,0.26819001,-0.06899
 158,-0.04669589,0.02045393,-0.35180582,0.11466358,0.00578723,0.8097719
 8,0.05146180,0.11984723,-0.02859421,-0.02638847,-0.14296841,0.04850054
 ,0.01925277,0.32434442,0.02710985,0.02988924,0.00357276,-0.02944713,0.
 01635311,-0.07669624,-0.07231365,-0.28349468,0.36005123,-0.02618053,-0
 .05425125,0.00612774,0.05297458,0.01350578,-0.00920993,-0.03684815,0.0
 5391204,0.03727679,0.80977198,-0.04871253,-0.10759544,0.01560586,0.127
 68965,-0.00401643,-0.03255262,-0.05391204,0.08010604,0.09333730,-0.019
 25277,0.32434442,0.02515927,0.02819205,-0.01357248,-0.05139110,0.01305
 171,0.00128070,0.03727679,-0.09333730,0.01212319,-0.07231365,0.2834946
 8,0.36005123,0.05908654,0.12087065,-0.00818981,-0.11324257,-0.01169774
 ,0.02079861,0.05297458,-0.12768965,-0.05139110,-0.35180582,0.02638847,
 -0.02944713,0.74178181,0.02168317,-0.03662309,-0.00832577,0.01169774,-
 0.00421971,-0.00415655,-0.01350578,-0.00401643,-0.01305171,-0.11466358
 ,-0.14296841,-0.01635311,0.02775397,0.72445693,-0.00417168,-0.02157195
 ,0.00623058,0.02079861,0.00415655,-0.00354608,-0.00920993,0.03255262,0
 .00128070,0.00578723,-0.04850054,-0.07669624,-0.06114370,0.22990098,0.
 26819001,-0.15729835,-0.05888530,0.01250432,0.05908654,-0.02168317,-0.
 00417168,-0.02618053,0.04871253,0.02515927,-0.06899158,-0.05146180,0.0
 2710985,-0.28354652,0.13345608,0.08120223,0.78012358,0.05888530,-0.338
 94116,-0.00553107,-0.12087065,-0.03662309,0.02157195,0.05425125,-0.107
 59544,-0.02819205,0.04669589,0.11984723,-0.02988924,0.02936461,-0.2092
 3817,-0.05266691,0.03411187,0.73241192,0.01250432,0.00553107,-0.068894
 17,-0.00818981,0.00832577,0.00623058,0.00612774,-0.01560586,-0.0135724
 8,0.02045393,0.02859421,0.00357276,0.05498876,-0.06572154,-0.10390200,
 -0.13363555,0.04291197,0.20038394,-0.30672252,0.12694771,0.03272097,-0
 .02170837,0.01589869,0.00108687,-0.00201834,-0.00451855,0.00447600,0.0
 0036746,-0.00048016,-0.00053541,0.00160714,-0.00015161,0.00069680,0.00
 383129,-0.00369512,0.00007728,0.32338717,0.12484781,-0.13558487,-0.009
 81520,-0.02021344,0.01416033,0.00123819,-0.00330041,-0.00192750,0.0030
 1893,-0.00089605,-0.00073947,0.00008559,-0.00185321,-0.00588237,0.0001
 7381,0.03460399,-0.01293948,-0.00359751,-0.13425426,0.14097807,0.03364
 819,-0.00060161,-0.05114283,-0.00013411,-0.00688535,0.00554461,0.00514
 467,-0.00286699,0.00484944,0.00219770,0.00514938,-0.00331774,-0.001226
 67,0.00171670,0.00855103,-0.00188612,-0.00554114,0.00334690,-0.0367022
 5,0.01144567,0.03653049,0.00880035,-0.02966794,0.01055171,-0.07408941,
 0.04316356,-0.00736729,0.00261336,0.02716917,-0.01617644,-0.00197041,-
 0.00012301,-0.00162462,0.00019768,-0.00042332,0.00030959,-0.00449109,-
 0.00098734,0.00226904,0.00089417,0.00047317,-0.00086904,0.07279802,0.0
 0031589,-0.01751977,0.00720456,0.05015685,-0.31581767,0.11921130,-0.00
 666764,-0.00132683,0.00716207,-0.00236562,-0.00571966,0.00227840,0.005
 62899,-0.00031554,-0.00088622,-0.00408715,0.00535396,0.00499676,-0.001
 09332,0.00045936,-0.00242128,-0.04337998,0.33403098,-0.01268303,-0.000
 97484,0.00379519,0.00634801,0.12401461,-0.09816099,-0.00837106,0.01259
 380,0.00796578,-0.00634055,-0.01341326,0.00517577,0.01132019,-0.001776
 64,-0.00221732,-0.00024228,0.01011673,0.00656742,-0.00111917,-0.001309
 62,-0.00373339,0.01304084,-0.13330701,0.08632667,-0.00449109,0.0009873
 4,0.00226904,0.00019768,0.00042332,0.00030959,-0.00197041,0.00012301,-
 0.00162462,0.00261336,-0.02716917,-0.01617644,-0.07408941,-0.04316356,
 -0.00736729,0.00880035,0.02966794,0.01055171,-0.00013538,0.00124935,-0
 .00077824,0.00011447,-0.00008345,-0.00017936,0.07279802,0.00408715,0.0
 0535396,-0.00499676,-0.00562899,-0.00031554,0.00088622,0.00236562,-0.0
 0571966,-0.00227840,0.00666764,-0.00132683,-0.00716207,-0.05015685,-0.
 31581767,-0.11921130,-0.00031589,-0.01751977,-0.00720456,0.00003354,-0
 .00044439,0.00020519,0.00008345,0.00029835,0.00073480,0.04337998,0.334
 03098,-0.00024228,-0.01011673,0.00656742,0.01132019,0.00177664,-0.0022
 1732,-0.00634055,0.01341326,0.00517577,-0.00837106,-0.01259380,0.00796
 578,0.00634801,-0.12401461,-0.09816099,-0.01268303,0.00097484,0.003795
 19,0.00003009,-0.00098709,0.00115679,-0.00017936,-0.00073480,-0.001358
 25,0.01304084,0.13330701,0.08632667,0.00383129,0.00369512,0.00007728,0
 .00160714,0.00015161,0.00069680,0.00036746,0.00048016,-0.00053541,-0.0
 0201834,0.00451855,0.00447600,-0.02170837,-0.01589869,0.00108687,-0.30
 672252,-0.12694771,0.03272097,0.00133772,-0.00037910,-0.00057281,-0.00
 013538,-0.00003354,0.00003009,0.00089417,0.00109332,-0.00111917,0.3233
 8717,-0.03460399,-0.01293948,0.00359751,0.00185321,-0.00588237,-0.0001
 7381,0.00089605,-0.00073947,-0.00008559,0.00330041,-0.00192750,-0.0030
 1893,0.02021344,0.01416033,-0.00123819,-0.12484781,-0.13558487,0.00981
 520,0.00037910,0.00115822,0.00009608,-0.00124935,-0.00044439,0.0009870
 9,-0.00047317,0.00045936,0.00130962,0.13425426,0.14097807,-0.00188612,
 0.00554114,0.00334690,-0.00122667,-0.00171670,0.00855103,0.00219770,-0
 .00514938,-0.00331774,0.00514467,0.00286699,0.00484944,-0.00013411,0.0
 0688535,0.00554461,0.03364819,0.00060161,-0.05114283,-0.00057281,-0.00
 009608,-0.00499044,-0.00077824,-0.00020519,0.00115679,-0.00086904,0.00
 242128,-0.00373339,-0.03670225,-0.01144567,0.03653049,-0.00152362,-0.0
 0543358,0.00099470,0.00401518,0.02626198,-0.03999650,-0.10739198,0.062
 58431,-0.03528103,-0.10739198,-0.06258431,-0.03528104,0.00401518,-0.02
 626197,-0.03999649,-0.00152362,0.00543358,0.00099469,0.00049456,0.0006
 7019,0.00115896,-0.00510886,0.00115516,-0.00083848,-0.00510886,-0.0011
 5517,-0.00083848,0.00049456,-0.00067019,0.00115896,0.18311378,-0.01470
 501,0.00273994,0.00494834,0.02575082,-0.03529813,0.02930192,0.03802273
 ,-0.14501899,0.11967315,-0.03802274,-0.14501901,-0.11967319,-0.0257508
 3,-0.03529810,-0.02930190,0.01470502,0.00273992,-0.00494832,0.00025441
 ,0.00021805,-0.00045218,0.00609816,0.00119129,0.00432186,-0.00609816,0
 .00119128,-0.00432186,-0.00025441,0.00021805,0.00045217,0.,0.39316391,
 -0.02496327,-0.04561898,0.00894025,0.05722780,0.00659026,-0.01065435,-
 0.07990525,0.24927913,-0.19808561,-0.07990524,-0.24927914,-0.19808564,
 0.05722779,-0.00659026,-0.01065433,-0.02496327,0.04561899,0.00894026,0
 .00013960,-0.00002261,0.00311143,0.00095026,-0.00185594,-0.00297532,0.
 00095026,0.00185594,-0.00297533,0.00013959,0.00002260,0.00311143,0.109
 22175,0.00000002,0.44027741,0.00072309,0.00008691,-0.00032692,-0.00072
 155,0.00016769,0.00021528,-0.00092887,-0.00126748,-0.00121189,-0.26959
 171,0.10383163,0.11395938,-0.01454871,0.01964523,0.01179246,-0.0038106
 5,-0.00582270,0.00146383,-0.00002417,0.00010889,-0.00014350,0.00010400
 ,0.00006405,0.00002178,0.00027311,-0.00038976,-0.00098698,-0.00131075,
 0.00105693,0.00016322,0.01795783,-0.00823869,-0.00806000,0.27135887,0.
 00112775,-0.00092502,0.00008242,0.00037626,0.00165015,0.00026806,0.003
 86799,-0.00114836,-0.01030622,0.10923825,-0.11383660,-0.06797485,-0.01
 269559,0.01411209,0.00686114,-0.00318062,-0.00098604,-0.00301478,0.000
 05085,0.00012282,0.00017656,0.00006539,-0.00011471,-0.00013548,0.00122
 197,-0.00007536,0.00185204,-0.00062872,0.00042122,0.00002102,0.0104052
 5,-0.02041410,-0.01504075,-0.10954574,0.12151859,-0.00191818,-0.000427
 89,-0.00003378,0.00190158,-0.00151721,0.00156266,-0.00787663,0.0068567
 9,0.00057357,0.10702901,-0.06585227,-0.10392038,-0.00105245,-0.0000300
 4,0.00381738,-0.00012372,-0.00040359,0.00470822,-0.00000430,-0.0000725
 6,-0.00026820,0.00022167,-0.00002807,-0.00003036,-0.00034813,0.0014146
 0,-0.00251198,-0.00029368,0.00006152,0.00036189,0.01935147,-0.02581555
 ,-0.02047510,-0.11731292,0.08651256,0.11598083,-0.00381065,0.00582270,
 0.00146383,-0.01454871,-0.01964523,0.01179246,-0.26959171,-0.10383163,
 0.11395938,-0.00092887,0.00126748,-0.00121189,-0.00072155,-0.00016769,
 0.00021528,0.00072309,-0.00008691,-0.00032692,-0.00131075,-0.00105693,
 0.00016322,0.00027311,0.00038976,-0.00098698,0.00010400,-0.00006405,0.
 00002178,-0.00002417,-0.00010889,-0.00014350,0.01795783,0.00823870,-0.
 00806000,0.00051950,-0.00030304,0.00042627,0.27135887,0.00318062,-0.00
 098604,0.00301478,0.01269559,0.01411209,-0.00686114,-0.10923825,-0.113
 83660,0.06797485,-0.00386799,-0.00114836,0.01030622,-0.00037626,0.0016
 5015,-0.00026806,-0.00112775,-0.00092502,-0.00008242,0.00062872,0.0004
 2122,-0.00002102,-0.00122197,-0.00007536,-0.00185204,-0.00006539,-0.00
 011471,0.00013548,-0.00005085,0.00012282,-0.00017656,-0.01040525,-0.02
 041410,0.01504075,0.00030304,-0.00032468,-0.00069829,0.10954574,0.1215
 1859,-0.00012372,0.00040359,0.00470822,-0.00105245,0.00003004,0.003817
 38,0.10702901,0.06585227,-0.10392038,-0.00787663,-0.00685679,0.0005735
 7,0.00190158,0.00151721,0.00156266,-0.00191818,0.00042789,-0.00003378,
 -0.00029368,-0.00006152,0.00036189,-0.00034813,-0.00141460,-0.00251198
 ,0.00022167,0.00002807,-0.00003036,-0.00000430,0.00007256,-0.00026820,
 0.01935147,0.02581556,-0.02047509,0.00042627,0.00069829,0.00023525,-0.
 11731292,-0.08651256,0.11598083\\0.00001239,-0.00003052,0.00000164,0.0
 0001597,-0.00001096,0.00000997,-0.00006188,-0.00000900,-0.00000867,-0.
 00006188,0.00000900,-0.00000867,0.00001597,0.00001096,0.00000997,0.000
 01239,0.00003052,0.00000164,-0.00002111,0.00001165,0.00000158,-0.00000
 352,0.00002063,-0.00001047,-0.00000352,-0.00002063,-0.00001047,-0.0000
 2111,-0.00001165,0.00000158,0.00002042,0.,0.00006511,0.00004794,-0.000
 03333,-0.00002661,0.00004794,0.00003333,-0.00002661\\\@


 BLESSED ARE THOSE WHO NOUGHT EXPECT,
 FOR THEY SHALL NOT BE DISAPPOINTED..  WALCOT - ODE TO PITT
 Job cpu time:       0 days  0 hours  0 minutes 42.8 seconds.
 File lengths (MBytes):  RWF=     18 Int=      0 D2E=      0 Chk=      2 Scr=      1
 Normal termination of Gaussian 09 at Fri Oct  5 10:07:57 2018.
