 Entering Gaussian System, Link 0=/home/eliot/software/g09E01/g09
 Initial command:
 /home/eliot/software/g09E01/l1.exe "/tmp/Gau-20367.inp" -scrdir="/tmp/"
 Entering Link 1 = /home/eliot/software/g09E01/l1.exe PID=     20369.
  
 Copyright (c) 1988,1990,1992,1993,1995,1998,2003,2009,2015,
            Gaussian, Inc.  All Rights Reserved.
  
 This is part of the Gaussian(R) 09 program.  It is based on
 the Gaussian(R) 03 system (copyright 2003, Gaussian, Inc.),
 the Gaussian(R) 98 system (copyright 1998, Gaussian, Inc.),
 the Gaussian(R) 94 system (copyright 1995, Gaussian, Inc.),
 the Gaussian 92(TM) system (copyright 1992, Gaussian, Inc.),
 the Gaussian 90(TM) system (copyright 1990, Gaussian, Inc.),
 the Gaussian 88(TM) system (copyright 1988, Gaussian, Inc.),
 the Gaussian 86(TM) system (copyright 1986, Carnegie Mellon
 University), and the Gaussian 82(TM) system (copyright 1983,
 Carnegie Mellon University). Gaussian is a federally registered
 trademark of Gaussian, Inc.
  
 This software contains proprietary and confidential information,
 including trade secrets, belonging to Gaussian, Inc.
  
 This software is provided under written license and may be
 used, copied, transmitted, or stored only in accord with that
 written license.
  
 The following legend is applicable only to US Government
 contracts under FAR:
  
                    RESTRICTED RIGHTS LEGEND
  
 Use, reproduction and disclosure by the US Government is
 subject to restrictions as set forth in subparagraphs (a)
 and (c) of the Commercial Computer Software - Restricted
 Rights clause in FAR 52.227-19.
  
 Gaussian, Inc.
 340 Quinnipiac St., Bldg. 40, Wallingford CT 06492
  
  
 ---------------------------------------------------------------
 Warning -- This program may not be used in any manner that
 competes with the business of Gaussian, Inc. or will provide
 assistance to any competitor of Gaussian, Inc.  The licensee
 of this program is prohibited from giving any competitor of
 Gaussian, Inc. access to this program.  By using this program,
 the user acknowledges that Gaussian, Inc. is engaged in the
 business of creating and licensing software in the field of
 computational chemistry and represents and warrants to the
 licensee that it is not a competitor of Gaussian, Inc. and that
 it will not use this program in any manner prohibited above.
 ---------------------------------------------------------------
  

 Cite this work as:
 Gaussian 09, Revision E.01,
 M. J. Frisch, G. W. Trucks, H. B. Schlegel, G. E. Scuseria, 
 M. A. Robb, J. R. Cheeseman, G. Scalmani, V. Barone, B. Mennucci, 
 G. A. Petersson, H. Nakatsuji, M. Caricato, X. Li, H. P. Hratchian, 
 A. F. Izmaylov, J. Bloino, G. Zheng, J. L. Sonnenberg, M. Hada, 
 M. Ehara, K. Toyota, R. Fukuda, J. Hasegawa, M. Ishida, T. Nakajima, 
 Y. Honda, O. Kitao, H. Nakai, T. Vreven, J. A. Montgomery, Jr., 
 J. E. Peralta, F. Ogliaro, M. Bearpark, J. J. Heyd, E. Brothers, 
 K. N. Kudin, V. N. Staroverov, T. Keith, R. Kobayashi, J. Normand, 
 K. Raghavachari, A. Rendell, J. C. Burant, S. S. Iyengar, J. Tomasi, 
 M. Cossi, N. Rega, J. M. Millam, M. Klene, J. E. Knox, J. B. Cross, 
 V. Bakken, C. Adamo, J. Jaramillo, R. Gomperts, R. E. Stratmann, 
 O. Yazyev, A. J. Austin, R. Cammi, C. Pomelli, J. W. Ochterski, 
 R. L. Martin, K. Morokuma, V. G. Zakrzewski, G. A. Voth, 
 P. Salvador, J. J. Dannenberg, S. Dapprich, A. D. Daniels, 
 O. Farkas, J. B. Foresman, J. V. Ortiz, J. Cioslowski, 
 and D. J. Fox, Gaussian, Inc., Wallingford CT, 2013.
 
 ******************************************
 Gaussian 09:  ES64L-G09RevE.01 30-Nov-2015
                 4-Oct-2018 
 ******************************************
 %nproc=4
 Will use up to    4 processors via shared memory.
 ------------------------------------
 # opt(ts, calcfc, noeigen) hf/6-31g*
 ------------------------------------
 1/5=1,10=4,11=1,18=20,38=1/1,3;
 2/9=110,12=2,17=6,18=5,40=1/2;
 3/5=1,6=6,7=1,11=9,16=1,25=1,30=1,71=2,140=1/1,2,3;
 4//1;
 5/5=2,38=5/2;
 8/6=4,10=90,11=11/1;
 11/6=1,8=1,9=11,15=111,16=1/1,2,10;
 10/6=1,13=1/2;
 6/7=2,8=2,9=2,10=2,28=1/1;
 7/10=1,18=20,25=1/1,2,3,16;
 1/5=1,10=4,11=1,18=20/3(2);
 2/9=110/2;
 99//99;
 2/9=110/2;
 3/5=1,6=6,7=1,11=9,16=1,25=1,30=1,71=1/1,2,3;
 4/5=5,16=3,69=1/1;
 5/5=2,38=5/2;
 7//1,2,3,16;
 1/5=1,11=1,18=20/3(-5);
 2/9=110/2;
 6/7=2,8=2,9=2,10=2,19=2,28=1/1;
 99/9=1/99;
 ------
 ts.log
 ------
 Symbolic Z-matrix:
 Charge =  0 Multiplicity = 1
 C                     1.41399  -0.70371   0.16313 
 C                     0.306    -1.45066  -0.24152 
 C                    -0.99007  -0.9199   -0.23037 
 C                    -0.99006   0.91991  -0.23036 
 C                     0.30602   1.45066  -0.24152 
 C                     1.41401   0.70369   0.16313 
 H                     2.37589  -1.21217   0.27758 
 H                     0.45104  -2.44555  -0.6733 
 H                     0.45109   2.44554  -0.67331 
 H                     2.37592   1.21213   0.27757 
 O                    -1.3443    0.00001   0.74631 
 H                    -1.82945   1.41209  -0.73696 
 H                    -1.82947  -1.41207  -0.73696 
 

 GradGradGradGradGradGradGradGradGradGradGradGradGradGradGradGradGradGrad
 Berny optimization.
 Initialization pass.
                           ----------------------------
                           !    Initial Parameters    !
                           ! (Angstroms and Degrees)  !
 --------------------------                            --------------------------
 ! Name  Definition              Value          Derivative Info.                !
 --------------------------------------------------------------------------------
 ! R1    R(1,2)                  1.3962         calculate D2E/DX2 analytically  !
 ! R2    R(1,6)                  1.4074         calculate D2E/DX2 analytically  !
 ! R3    R(1,7)                  1.094          calculate D2E/DX2 analytically  !
 ! R4    R(2,3)                  1.4006         calculate D2E/DX2 analytically  !
 ! R5    R(2,8)                  1.0942         calculate D2E/DX2 analytically  !
 ! R6    R(3,11)                 1.3877         calculate D2E/DX2 analytically  !
 ! R7    R(3,13)                 1.097          calculate D2E/DX2 analytically  !
 ! R8    R(4,5)                  1.4006         calculate D2E/DX2 analytically  !
 ! R9    R(4,11)                 1.3877         calculate D2E/DX2 analytically  !
 ! R10   R(4,12)                 1.097          calculate D2E/DX2 analytically  !
 ! R11   R(5,6)                  1.3962         calculate D2E/DX2 analytically  !
 ! R12   R(5,9)                  1.0942         calculate D2E/DX2 analytically  !
 ! R13   R(6,10)                 1.094          calculate D2E/DX2 analytically  !
 ! A1    A(2,1,6)              122.3444         calculate D2E/DX2 analytically  !
 ! A2    A(2,1,7)              118.6477         calculate D2E/DX2 analytically  !
 ! A3    A(6,1,7)              117.694          calculate D2E/DX2 analytically  !
 ! A4    A(1,2,3)              121.9597         calculate D2E/DX2 analytically  !
 ! A5    A(1,2,8)              119.7102         calculate D2E/DX2 analytically  !
 ! A6    A(3,2,8)              118.058          calculate D2E/DX2 analytically  !
 ! A7    A(2,3,11)             119.5408         calculate D2E/DX2 analytically  !
 ! A8    A(2,3,13)             122.3015         calculate D2E/DX2 analytically  !
 ! A9    A(11,3,13)            115.2842         calculate D2E/DX2 analytically  !
 ! A10   A(5,4,11)             119.5413         calculate D2E/DX2 analytically  !
 ! A11   A(5,4,12)             122.3008         calculate D2E/DX2 analytically  !
 ! A12   A(11,4,12)            115.2846         calculate D2E/DX2 analytically  !
 ! A13   A(4,5,6)              121.9594         calculate D2E/DX2 analytically  !
 ! A14   A(4,5,9)              118.0592         calculate D2E/DX2 analytically  !
 ! A15   A(6,5,9)              119.7093         calculate D2E/DX2 analytically  !
 ! A16   A(1,6,5)              122.3435         calculate D2E/DX2 analytically  !
 ! A17   A(1,6,10)             117.6945         calculate D2E/DX2 analytically  !
 ! A18   A(5,6,10)             118.648          calculate D2E/DX2 analytically  !
 ! A19   A(3,11,4)              83.0456         calculate D2E/DX2 analytically  !
 ! D1    D(6,1,2,3)            -22.5187         calculate D2E/DX2 analytically  !
 ! D2    D(6,1,2,8)            151.3719         calculate D2E/DX2 analytically  !
 ! D3    D(7,1,2,3)            170.88           calculate D2E/DX2 analytically  !
 ! D4    D(7,1,2,8)            -15.2294         calculate D2E/DX2 analytically  !
 ! D5    D(2,1,6,5)              0.0004         calculate D2E/DX2 analytically  !
 ! D6    D(2,1,6,10)          -166.7218         calculate D2E/DX2 analytically  !
 ! D7    D(7,1,6,5)            166.7227         calculate D2E/DX2 analytically  !
 ! D8    D(7,1,6,10)             0.0006         calculate D2E/DX2 analytically  !
 ! D9    D(1,2,3,11)           -33.2842         calculate D2E/DX2 analytically  !
 ! D10   D(1,2,3,13)           166.8166         calculate D2E/DX2 analytically  !
 ! D11   D(8,2,3,11)           152.7283         calculate D2E/DX2 analytically  !
 ! D12   D(8,2,3,13)            -7.1708         calculate D2E/DX2 analytically  !
 ! D13   D(2,3,11,4)            94.5881         calculate D2E/DX2 analytically  !
 ! D14   D(13,3,11,4)         -104.1515         calculate D2E/DX2 analytically  !
 ! D15   D(11,4,5,6)            33.284          calculate D2E/DX2 analytically  !
 ! D16   D(11,4,5,9)          -152.7292         calculate D2E/DX2 analytically  !
 ! D17   D(12,4,5,6)          -166.8159         calculate D2E/DX2 analytically  !
 ! D18   D(12,4,5,9)             7.1708         calculate D2E/DX2 analytically  !
 ! D19   D(5,4,11,3)           -94.588          calculate D2E/DX2 analytically  !
 ! D20   D(12,4,11,3)          104.151          calculate D2E/DX2 analytically  !
 ! D21   D(4,5,6,1)             22.5186         calculate D2E/DX2 analytically  !
 ! D22   D(4,5,6,10)          -170.8803         calculate D2E/DX2 analytically  !
 ! D23   D(9,5,6,1)           -151.3715         calculate D2E/DX2 analytically  !
 ! D24   D(9,5,6,10)            15.2296         calculate D2E/DX2 analytically  !
 --------------------------------------------------------------------------------
 Trust Radius=3.00D-01 FncErr=1.00D-07 GrdErr=1.00D-07
 Number of steps in this run=     66 maximum allowed number of steps=    100.
 Search for a saddle point of order  1.
 GradGradGradGradGradGradGradGradGradGradGradGradGradGradGradGradGradGrad

                          Input orientation:                          
 ---------------------------------------------------------------------
 Center     Atomic      Atomic             Coordinates (Angstroms)
 Number     Number       Type             X           Y           Z
 ---------------------------------------------------------------------
      1          6           0        1.413990   -0.703710    0.163130
      2          6           0        0.306000   -1.450660   -0.241520
      3          6           0       -0.990070   -0.919900   -0.230370
      4          6           0       -0.990060    0.919910   -0.230360
      5          6           0        0.306020    1.450660   -0.241520
      6          6           0        1.414010    0.703690    0.163130
      7          1           0        2.375890   -1.212170    0.277580
      8          1           0        0.451040   -2.445550   -0.673300
      9          1           0        0.451090    2.445540   -0.673310
     10          1           0        2.375920    1.212130    0.277570
     11          8           0       -1.344300    0.000010    0.746310
     12          1           0       -1.829450    1.412090   -0.736960
     13          1           0       -1.829470   -1.412070   -0.736960
 ---------------------------------------------------------------------
                    Distance matrix (angstroms):
                    1          2          3          4          5
     1  C    0.000000
     2  C    1.396180   0.000000
     3  C    2.445626   1.400581   0.000000
     4  C    2.927530   2.701758   1.839810   0.000000
     5  C    2.456145   2.901320   2.701764   1.400587   0.000000
     6  C    1.407400   2.456146   2.927539   2.445637   1.396190
     7  H    1.094021   2.147274   3.416595   4.016639   3.412402
     8  H    2.158910   1.094201   2.144899   3.687721   3.922744
     9  H    3.397732   3.922737   3.687726   2.144916   1.094200
    10  H    2.146823   3.412400   4.016646   3.416607   2.147286
    11  O    2.905767   2.409096   1.387666   1.387655   2.409097
    12  H    3.975761   3.605682   2.529698   1.097023   2.192528
    13  H    3.439763   2.192529   1.097022   2.529700   3.605690
                    6          7          8          9         10
     6  C    0.000000
     7  H    2.146819   0.000000
     8  H    3.397740   2.475974   0.000000
     9  H    2.158909   4.241213   4.891090   0.000000
    10  H    1.094019   2.424300   4.241219   2.475973   0.000000
    11  O    2.905777   3.940673   3.349523   3.349532   3.940684
    12  H    3.439771   5.059735   4.481749   2.504582   4.330634
    13  H    3.975772   4.330624   2.504568   4.481759   5.059743
                   11         12         13
    11  O    0.000000
    12  H    2.104621   0.000000
    13  H    2.104626   2.824160   0.000000
 Stoichiometry    C6H6O
 Framework group  C1[X(C6H6O)]
 Deg. of freedom    33
 Full point group                 C1      NOp   1
 Largest Abelian subgroup         C1      NOp   1
 Largest concise Abelian subgroup C1      NOp   1
                         Standard orientation:                         
 ---------------------------------------------------------------------
 Center     Atomic      Atomic             Coordinates (Angstroms)
 Number     Number       Type             X           Y           Z
 ---------------------------------------------------------------------
      1          6           0       -1.413989    0.703714    0.163129
      2          6           0       -0.305997    1.450661   -0.241521
      3          6           0        0.990072    0.919897   -0.230371
      4          6           0        0.990057   -0.919913   -0.230361
      5          6           0       -0.306025   -1.450659   -0.241521
      6          6           0       -1.414013   -0.703686    0.163129
      7          1           0       -2.375887    1.212177    0.277579
      8          1           0       -0.451034    2.445551   -0.673301
      9          1           0       -0.451098   -2.445539   -0.673311
     10          1           0       -2.375924   -1.212123    0.277569
     11          8           0        1.344299   -0.000014    0.746309
     12          1           0        1.829445   -1.412096   -0.736961
     13          1           0        1.829473    1.412064   -0.736961
 ---------------------------------------------------------------------
 Rotational constants (GHZ):      4.3580897      3.7300650      2.2663139
 Standard basis: 6-31G(d) (6D, 7F)
 There are   117 symmetry adapted cartesian basis functions of A   symmetry.
 There are   117 symmetry adapted basis functions of A   symmetry.
   117 basis functions,   220 primitive gaussians,   117 cartesian basis functions
    25 alpha electrons       25 beta electrons
       nuclear repulsion energy       279.6735677595 Hartrees.
 NAtoms=   13 NActive=   13 NUniq=   13 SFac= 1.00D+00 NAtFMM=   60 NAOKFM=F Big=F
 Integral buffers will be    131072 words long.
 Raffenetti 1 integral format.
 Two-electron integral symmetry is turned on.
 One-electron integrals computed using PRISM.
 NBasis=   117 RedAO= T EigKep=  8.76D-04  NBF=   117
 NBsUse=   117 1.00D-06 EigRej= -1.00D+00 NBFU=   117
 ExpMin= 1.61D-01 ExpMax= 5.48D+03 ExpMxC= 8.25D+02 IAcc=1 IRadAn=         1 AccDes= 0.00D+00
 Harris functional with IExCor=  205 and IRadAn=       1 diagonalized for initial guess.
 HarFok:  IExCor=  205 AccDes= 0.00D+00 IRadAn=         1 IDoV= 1 UseB2=F ITyADJ=14
 ICtDFT=  3500011 ScaDFX=  1.000000  1.000000  1.000000  1.000000
 FoFCou: FMM=F IPFlag=           0 FMFlag=      100000 FMFlg1=           0
         NFxFlg=           0 DoJE=T BraDBF=F KetDBF=T FulRan=T
         wScrn=  0.000000 ICntrl=     500 IOpCl=  0 I1Cent=   200000004 NGrid=           0
         NMat0=    1 NMatS0=      1 NMatT0=    0 NMatD0=    1 NMtDS0=    0 NMtDT0=    0
 Petite list used in FoFCou.
 Keep R1 ints in memory in canonical form, NReq=24776348.
 Requested convergence on RMS density matrix=1.00D-08 within 128 cycles.
 Requested convergence on MAX density matrix=1.00D-06.
 Requested convergence on             energy=1.00D-06.
 No special actions if energy rises.
 SCF Done:  E(RHF) =  -305.459109420     A.U. after   14 cycles
            NFock= 14  Conv=0.30D-08     -V/T= 2.0025
 Range of M.O.s used for correlation:     1   117
 NBasis=   117 NAE=    25 NBE=    25 NFC=     0 NFV=     0
 NROrb=    117 NOA=    25 NOB=    25 NVA=    92 NVB=    92
 Symmetrizing basis deriv contribution to polar:
 IMax=3 JMax=2 DiffMx= 0.00D+00
 G2DrvN: will do    14 centers at a time, making    1 passes.
 Calling FoFCou, ICntrl=  3107 FMM=F I1Cent=   0 AccDes= 0.00D+00.
 End of G2Drv F.D. properties file   721 does not exist.
 End of G2Drv F.D. properties file   722 does not exist.
 End of G2Drv F.D. properties file   788 does not exist.
          IDoAtm=1111111111111
          Differentiating once with respect to nuclear coordinates.
 Keep R1 ints in memory in canonical form, NReq=24739643.
          There are    42 degrees of freedom in the 1st order CPHF.  IDoFFX=6 NUNeed=     0.
     36 vectors produced by pass  0 Test12= 5.48D-15 2.38D-09 XBig12= 6.08D-02 8.70D-02.
 AX will form    36 AO Fock derivatives at one time.
     36 vectors produced by pass  1 Test12= 5.48D-15 2.38D-09 XBig12= 3.44D-03 1.90D-02.
     36 vectors produced by pass  2 Test12= 5.48D-15 2.38D-09 XBig12= 6.86D-05 1.63D-03.
     36 vectors produced by pass  3 Test12= 5.48D-15 2.38D-09 XBig12= 6.68D-07 1.14D-04.
     36 vectors produced by pass  4 Test12= 5.48D-15 2.38D-09 XBig12= 6.00D-09 1.16D-05.
     36 vectors produced by pass  5 Test12= 5.48D-15 2.38D-09 XBig12= 4.06D-11 1.04D-06.
     36 vectors produced by pass  6 Test12= 5.48D-15 2.38D-09 XBig12= 2.14D-13 7.24D-08.
      7 vectors produced by pass  7 Test12= 5.48D-15 2.38D-09 XBig12= 1.24D-15 4.46D-09.
 InvSVY:  IOpt=1 It=  1 EMax= 2.66D-15
 Solved reduced A of dimension   259 with    36 vectors.
 End of Minotr F.D. properties file   721 does not exist.
 End of Minotr F.D. properties file   722 does not exist.
 End of Minotr F.D. properties file   788 does not exist.

 **********************************************************************

            Population analysis using the SCF density.

 **********************************************************************

 Orbital symmetries:
       Occupied  (A) (A) (A) (A) (A) (A) (A) (A) (A) (A) (A) (A)
                 (A) (A) (A) (A) (A) (A) (A) (A) (A) (A) (A) (A)
                 (A)
       Virtual   (A) (A) (A) (A) (A) (A) (A) (A) (A) (A) (A) (A)
                 (A) (A) (A) (A) (A) (A) (A) (A) (A) (A) (A) (A)
                 (A) (A) (A) (A) (A) (A) (A) (A) (A) (A) (A) (A)
                 (A) (A) (A) (A) (A) (A) (A) (A) (A) (A) (A) (A)
                 (A) (A) (A) (A) (A) (A) (A) (A) (A) (A) (A) (A)
                 (A) (A) (A) (A) (A) (A) (A) (A) (A) (A) (A) (A)
                 (A) (A) (A) (A) (A) (A) (A) (A) (A) (A) (A) (A)
                 (A) (A) (A) (A) (A) (A) (A) (A)
 The electronic state is 1-A.
 Alpha  occ. eigenvalues --  -20.59483 -11.30843 -11.30827 -11.24159 -11.24055
 Alpha  occ. eigenvalues --  -11.23839 -11.23835  -1.43642  -1.10680  -1.03980
 Alpha  occ. eigenvalues --   -0.94224  -0.87246  -0.78488  -0.72208  -0.71091
 Alpha  occ. eigenvalues --   -0.64521  -0.62614  -0.62247  -0.57892  -0.53029
 Alpha  occ. eigenvalues --   -0.51487  -0.47553  -0.45485  -0.31979  -0.31768
 Alpha virt. eigenvalues --    0.12915   0.14272   0.23149   0.27371   0.28234
 Alpha virt. eigenvalues --    0.29703   0.32183   0.32821   0.35288   0.36237
 Alpha virt. eigenvalues --    0.45211   0.48429   0.49843   0.50819   0.67258
 Alpha virt. eigenvalues --    0.68171   0.69659   0.73926   0.75209   0.77156
 Alpha virt. eigenvalues --    0.78701   0.80157   0.82167   0.83469   0.84319
 Alpha virt. eigenvalues --    0.87535   0.91109   0.93949   0.95008   1.05156
 Alpha virt. eigenvalues --    1.09598   1.09734   1.10691   1.10703   1.12627
 Alpha virt. eigenvalues --    1.13851   1.13980   1.16434   1.19559   1.21738
 Alpha virt. eigenvalues --    1.28055   1.29631   1.29659   1.35831   1.41805
 Alpha virt. eigenvalues --    1.50926   1.51712   1.61286   1.64362   1.66984
 Alpha virt. eigenvalues --    1.72344   1.74409   1.78501   1.84669   1.87942
 Alpha virt. eigenvalues --    1.99066   2.07141   2.13609   2.14950   2.18381
 Alpha virt. eigenvalues --    2.23562   2.23943   2.29358   2.34175   2.35521
 Alpha virt. eigenvalues --    2.44488   2.45201   2.51329   2.56218   2.59744
 Alpha virt. eigenvalues --    2.61219   2.73571   2.75567   2.78219   2.89931
 Alpha virt. eigenvalues --    2.91601   2.92067   2.97946   2.98745   3.03849
 Alpha virt. eigenvalues --    3.13150   3.29671   3.31626   3.33896   3.61126
 Alpha virt. eigenvalues --    4.31318   4.49989   4.57684   4.60449   4.76029
 Alpha virt. eigenvalues --    4.82923   5.01835
          Condensed to atoms (all electrons):
               1          2          3          4          5          6
     1  C    4.900234   0.546368  -0.051787  -0.014403  -0.052032   0.543651
     2  C    0.546368   4.979870   0.520103  -0.027754  -0.029480  -0.052031
     3  C   -0.051787   0.520103   4.834929   0.136877  -0.027753  -0.014403
     4  C   -0.014403  -0.027754   0.136877   4.834918   0.520102  -0.051787
     5  C   -0.052032  -0.029480  -0.027753   0.520102   4.979883   0.546364
     6  C    0.543651  -0.052031  -0.014403  -0.051787   0.546364   4.900235
     7  H    0.386624  -0.032448   0.002626   0.000193   0.002485  -0.033492
     8  H   -0.027545   0.376873  -0.030819   0.000678   0.000096   0.001905
     9  H    0.001905   0.000096   0.000678  -0.030818   0.376873  -0.027546
    10  H   -0.033492   0.002485   0.000193   0.002626  -0.032447   0.386624
    11  O    0.000120  -0.058186   0.195464   0.195464  -0.058185   0.000120
    12  H    0.000102  -0.000208   0.001098   0.392019  -0.045815   0.002992
    13  H    0.002992  -0.045814   0.392019   0.001098  -0.000208   0.000102
               7          8          9         10         11         12
     1  C    0.386624  -0.027545   0.001905  -0.033492   0.000120   0.000102
     2  C   -0.032448   0.376873   0.000096   0.002485  -0.058186  -0.000208
     3  C    0.002626  -0.030819   0.000678   0.000193   0.195464   0.001098
     4  C    0.000193   0.000678  -0.030818   0.002626   0.195464   0.392019
     5  C    0.002485   0.000096   0.376873  -0.032447  -0.058185  -0.045815
     6  C   -0.033492   0.001905  -0.027546   0.386624   0.000120   0.002992
     7  H    0.481314  -0.001454  -0.000110  -0.002386  -0.000008   0.000004
     8  H   -0.001454   0.471683   0.000012  -0.000110   0.001685   0.000005
     9  H   -0.000110   0.000012   0.471683  -0.001453   0.001685   0.000397
    10  H   -0.002386  -0.000110  -0.001453   0.481310  -0.000008  -0.000085
    11  O   -0.000008   0.001685   0.001685  -0.000008   8.328757  -0.037430
    12  H    0.000004   0.000005   0.000397  -0.000085  -0.037430   0.481938
    13  H   -0.000085   0.000397   0.000005   0.000004  -0.037429   0.000463
              13
     1  C    0.002992
     2  C   -0.045814
     3  C    0.392019
     4  C    0.001098
     5  C   -0.000208
     6  C    0.000102
     7  H   -0.000085
     8  H    0.000397
     9  H    0.000005
    10  H    0.000004
    11  O   -0.037429
    12  H    0.000463
    13  H    0.481934
 Mulliken charges:
               1
     1  C   -0.202736
     2  C   -0.179873
     3  C    0.040777
     4  C    0.040786
     5  C   -0.179881
     6  C   -0.202734
     7  H    0.196738
     8  H    0.206594
     9  H    0.206594
    10  H    0.196740
    11  O   -0.532048
    12  H    0.204520
    13  H    0.204523
 Sum of Mulliken charges =   0.00000
 Mulliken charges with hydrogens summed into heavy atoms:
               1
     1  C   -0.005997
     2  C    0.026721
     3  C    0.245299
     4  C    0.245306
     5  C    0.026713
     6  C   -0.005994
    11  O   -0.532048
 APT charges:
               1
     1  C   -0.636665
     2  C   -0.533138
     3  C   -0.456825
     4  C   -0.456826
     5  C   -0.533146
     6  C   -0.636652
     7  H    0.616460
     8  H    0.600420
     9  H    0.600420
    10  H    0.616465
    11  O   -0.353479
    12  H    0.586481
    13  H    0.586486
 Sum of APT charges =   0.00000
 APT charges with hydrogens summed into heavy atoms:
               1
     1  C   -0.020206
     2  C    0.067282
     3  C    0.129661
     4  C    0.129655
     5  C    0.067274
     6  C   -0.020187
    11  O   -0.353479
 Electronic spatial extent (au):  <R**2>=            581.7292
 Charge=              0.0000 electrons
 Dipole moment (field-independent basis, Debye):
    X=             -0.4413    Y=              0.0000    Z=             -1.9491  Tot=              1.9985
 Quadrupole moment (field-independent basis, Debye-Ang):
   XX=            -37.6217   YY=            -35.9909   ZZ=            -44.9156
   XY=              0.0001   XZ=             -3.5506   YZ=              0.0000
 Traceless Quadrupole moment (field-independent basis, Debye-Ang):
   XX=              1.8877   YY=              3.5186   ZZ=             -5.4062
   XY=              0.0001   XZ=             -3.5506   YZ=              0.0000
 Octapole moment (field-independent basis, Debye-Ang**2):
  XXX=              0.6049  YYY=              0.0002  ZZZ=              2.1477  XYY=              1.8056
  XXY=             -0.0001  XXZ=             -2.6289  XZZ=              2.9836  YZZ=              0.0000
  YYZ=             -5.6261  XYZ=             -0.0001
 Hexadecapole moment (field-independent basis, Debye-Ang**3):
 XXXX=           -340.8501 YYYY=           -310.9747 ZZZZ=            -83.2428 XXXY=              0.0006
 XXXZ=            -11.5670 YYYX=              0.0001 YYYZ=              0.0002 ZZZX=              2.6568
 ZZZY=              0.0001 XXYY=           -103.2409 XXZZ=            -78.7833 YYZZ=            -68.2477
 XXYZ=              0.0001 YYXZ=             -0.7999 ZZXY=              0.0000
 N-N= 2.796735677595D+02 E-N=-1.273206900059D+03  KE= 3.046850161403D+02
  Exact polarizability:   0.000   0.000   0.000   0.000   0.000   0.000
 Approx polarizability:  71.642   0.000  76.678  -6.955   0.000  33.057
 Calling FoFJK, ICntrl=    100147 FMM=F ISym2X=0 I1Cent= 0 IOpClX= 0 NMat=1 NMatS=1 NMatT=0.
 ***** Axes restored to original set *****
 -------------------------------------------------------------------
 Center     Atomic                   Forces (Hartrees/Bohr)
 Number     Number              X              Y              Z
 -------------------------------------------------------------------
      1        6           0.000204312   -0.000300264   -0.002721116
      2        6          -0.000712601    0.001268223    0.000296664
      3        6          -0.001290239   -0.000439738    0.001110564
      4        6          -0.001285189    0.000446592    0.001103962
      5        6          -0.000705632   -0.001275471    0.000300105
      6        6           0.000191271    0.000302818   -0.002724841
      7        1          -0.011756723    0.006152644   -0.001500691
      8        1          -0.001671341    0.012233839    0.004998169
      9        1          -0.001674092   -0.012232858    0.004998025
     10        1          -0.011756340   -0.006152197   -0.001500097
     11        8           0.007221943   -0.000003388   -0.021959048
     12        1           0.011617308   -0.007817381    0.008799564
     13        1           0.011617322    0.007817181    0.008798741
 -------------------------------------------------------------------
 Cartesian Forces:  Max     0.021959048 RMS     0.006828535
 FormGI is forming the generalized inverse of G from B-inverse, IUseBI=4.

 GradGradGradGradGradGradGradGradGradGradGradGradGradGradGradGradGradGrad
 Berny optimization.
 Internal  Forces:  Max     0.016936863 RMS     0.007238041
 Search for a saddle point.
 Step number   1 out of a maximum of   66
 All quantities printed in internal units (Hartrees-Bohrs-Radians)
 Swapping is turned off.
 Second derivative matrix not updated -- analytic derivatives used.
 ITU=  0
     Eigenvalues ---   -0.15532   0.02075   0.02110   0.02278   0.02839
     Eigenvalues ---    0.02877   0.03193   0.03573   0.04645   0.05031
     Eigenvalues ---    0.11042   0.12485   0.13181   0.13207   0.14140
     Eigenvalues ---    0.14322   0.16653   0.18548   0.20154   0.21323
     Eigenvalues ---    0.31554   0.33788   0.35412   0.35879   0.36104
     Eigenvalues ---    0.36129   0.36162   0.36781   0.42789   0.44063
     Eigenvalues ---    0.49244   0.49689   0.54546
 Eigenvectors required to have negative eigenvalues:
                          A19       D11       D16       D9        D15
   1                   -0.52939  -0.27789   0.27789  -0.27733   0.27733
                          D13       D19       R8        R4        R11
   1                    0.27196  -0.27195   0.23064   0.23063  -0.20005
 RFO step:  Lambda0=7.977842079D-07 Lambda=-6.44827866D-03.
 Linear search not attempted -- option 19 set.
 Iteration  1 RMS(Cart)=  0.02357860 RMS(Int)=  0.00008841
 Iteration  2 RMS(Cart)=  0.00007933 RMS(Int)=  0.00001488
 Iteration  3 RMS(Cart)=  0.00000001 RMS(Int)=  0.00001488
 Variable       Old X    -DE/DX   Delta X   Delta X   Delta X     New X
                                 (Linear)    (Quad)   (Total)
    R1        2.63840  -0.01488   0.00000  -0.02655  -0.02656   2.61184
    R2        2.65960  -0.01423   0.00000  -0.02304  -0.02306   2.63654
    R3        2.06740  -0.01335   0.00000  -0.03545  -0.03545   2.03195
    R4        2.64672  -0.01485   0.00000  -0.02531  -0.02530   2.62142
    R5        2.06774  -0.01332   0.00000  -0.03541  -0.03541   2.03233
    R6        2.62231  -0.01694   0.00000  -0.03480  -0.03479   2.58752
    R7        2.07307  -0.01646   0.00000  -0.04377  -0.04377   2.02930
    R8        2.64673  -0.01485   0.00000  -0.02532  -0.02531   2.62141
    R9        2.62229  -0.01693   0.00000  -0.03478  -0.03476   2.58752
   R10        2.07307  -0.01646   0.00000  -0.04377  -0.04377   2.02930
   R11        2.63842  -0.01489   0.00000  -0.02657  -0.02658   2.61184
   R12        2.06774  -0.01332   0.00000  -0.03540  -0.03540   2.03233
   R13        2.06740  -0.01335   0.00000  -0.03544  -0.03544   2.03195
    A1        2.13531  -0.00088   0.00000   0.00033   0.00032   2.13563
    A2        2.07079   0.00035   0.00000  -0.00040  -0.00040   2.07039
    A3        2.05415   0.00047   0.00000  -0.00019  -0.00018   2.05396
    A4        2.12860   0.00015   0.00000  -0.00110  -0.00110   2.12750
    A5        2.08934  -0.00016   0.00000  -0.00089  -0.00089   2.08844
    A6        2.06050  -0.00001   0.00000   0.00155   0.00154   2.06204
    A7        2.08638   0.00028   0.00000  -0.00081  -0.00079   2.08559
    A8        2.13456   0.00102   0.00000   0.00557   0.00553   2.14010
    A9        2.01209  -0.00164   0.00000  -0.00770  -0.00772   2.00437
   A10        2.08639   0.00028   0.00000  -0.00082  -0.00080   2.08559
   A11        2.13455   0.00102   0.00000   0.00558   0.00555   2.14010
   A12        2.01210  -0.00164   0.00000  -0.00771  -0.00773   2.00437
   A13        2.12859   0.00016   0.00000  -0.00110  -0.00109   2.12750
   A14        2.06052  -0.00001   0.00000   0.00153   0.00152   2.06204
   A15        2.08932  -0.00016   0.00000  -0.00087  -0.00088   2.08844
   A16        2.13530  -0.00088   0.00000   0.00035   0.00033   2.13563
   A17        2.05416   0.00047   0.00000  -0.00020  -0.00019   2.05396
   A18        2.07080   0.00035   0.00000  -0.00041  -0.00040   2.07039
   A19        1.44942  -0.00178   0.00000   0.00300   0.00301   1.45243
    D1       -0.39303  -0.00016   0.00000   0.00412   0.00413  -0.38889
    D2        2.64194  -0.00032   0.00000  -0.00070  -0.00068   2.64126
    D3        2.98242   0.00008   0.00000   0.00547   0.00547   2.98789
    D4       -0.26580  -0.00008   0.00000   0.00065   0.00066  -0.26514
    D5        0.00001   0.00000   0.00000  -0.00001  -0.00001   0.00000
    D6       -2.90984   0.00025   0.00000   0.00136   0.00135  -2.90849
    D7        2.90986  -0.00025   0.00000  -0.00137  -0.00136   2.90850
    D8        0.00001   0.00000   0.00000  -0.00001  -0.00001   0.00000
    D9       -0.58092  -0.00085   0.00000  -0.00247  -0.00247  -0.58339
   D10        2.91150   0.00063   0.00000   0.00902   0.00903   2.92053
   D11        2.66561  -0.00069   0.00000   0.00242   0.00242   2.66803
   D12       -0.12515   0.00080   0.00000   0.01390   0.01392  -0.11124
   D13        1.65087   0.00111   0.00000   0.00269   0.00269   1.65356
   D14       -1.81779   0.00021   0.00000  -0.00552  -0.00548  -1.82326
   D15        0.58092   0.00085   0.00000   0.00247   0.00247   0.58339
   D16       -2.66563   0.00069   0.00000  -0.00240  -0.00240  -2.66803
   D17       -2.91149  -0.00063   0.00000  -0.00903  -0.00904  -2.92053
   D18        0.12515  -0.00080   0.00000  -0.01390  -0.01392   0.11124
   D19       -1.65087  -0.00111   0.00000  -0.00269  -0.00269  -1.65356
   D20        1.81778  -0.00021   0.00000   0.00553   0.00548   1.82326
   D21        0.39302   0.00016   0.00000  -0.00412  -0.00413   0.38889
   D22       -2.98242  -0.00008   0.00000  -0.00547  -0.00547  -2.98789
   D23       -2.64193   0.00032   0.00000   0.00069   0.00068  -2.64126
   D24        0.26581   0.00008   0.00000  -0.00066  -0.00066   0.26514
         Item               Value     Threshold  Converged?
 Maximum Force            0.016937     0.000450     NO 
 RMS     Force            0.007238     0.000300     NO 
 Maximum Displacement     0.057868     0.001800     NO 
 RMS     Displacement     0.023611     0.001200     NO 
 Predicted change in Energy=-3.273516D-03
 GradGradGradGradGradGradGradGradGradGradGradGradGradGradGradGradGradGrad

                          Input orientation:                          
 ---------------------------------------------------------------------
 Center     Atomic      Atomic             Coordinates (Angstroms)
 Number     Number       Type             X           Y           Z
 ---------------------------------------------------------------------
      1          6           0        1.401183   -0.697610    0.160128
      2          6           0        0.304802   -1.437423   -0.240996
      3          6           0       -0.977887   -0.909242   -0.234787
      4          6           0       -0.977872    0.909257   -0.234789
      5          6           0        0.304826    1.437416   -0.240999
      6          6           0        1.401194    0.697586    0.160126
      7          1           0        2.346773   -1.197171    0.271885
      8          1           0        0.448891   -2.414928   -0.665668
      9          1           0        0.448931    2.414917   -0.665674
     10          1           0        2.346793    1.197132    0.271881
     11          8           0       -1.327910    0.000010    0.727299
     12          1           0       -1.804545    1.390847   -0.722494
     13          1           0       -1.804568   -1.390821   -0.722491
 ---------------------------------------------------------------------
                    Distance matrix (angstroms):
                    1          2          3          4          5
     1  C    0.000000
     2  C    1.382127   0.000000
     3  C    2.420893   1.387193   0.000000
     4  C    2.897910   2.674359   1.818499   0.000000
     5  C    2.433359   2.874838   2.674359   1.387193   0.000000
     6  C    1.395196   2.433359   2.897910   2.420892   1.382126
     7  H    1.075264   2.119060   3.375350   3.968252   3.372484
     8  H    2.130254   1.075465   2.118595   3.643009   3.878357
     9  H    3.358059   3.878356   3.643009   2.118595   1.075465
    10  H    2.120546   3.372484   3.968252   3.375350   2.119059
    11  O    2.873379   2.381083   1.369257   1.369258   2.381084
    12  H    3.926496   3.560940   2.492315   1.073859   2.164128
    13  H    3.396528   2.164129   1.073860   2.492315   3.560941
                    6          7          8          9         10
     6  C    0.000000
     7  H    2.120546   0.000000
     8  H    3.358060   2.442109   0.000000
     9  H    2.130253   4.186646   4.829846   0.000000
    10  H    1.075264   2.394304   4.186647   2.442107   0.000000
    11  O    2.873379   3.891522   3.305951   3.305952   3.891523
    12  H    3.396527   4.992001   4.423249   2.475905   4.273162
    13  H    3.926496   4.273163   2.475905   4.423249   4.992001
                   11         12         13
    11  O    0.000000
    12  H    2.064827   0.000000
    13  H    2.064826   2.781668   0.000000
 Stoichiometry    C6H6O
 Framework group  C1[X(C6H6O)]
 Deg. of freedom    33
 Full point group                 C1      NOp   1
 Largest Abelian subgroup         C1      NOp   1
 Largest concise Abelian subgroup C1      NOp   1
                         Standard orientation:                         
 ---------------------------------------------------------------------
 Center     Atomic      Atomic             Coordinates (Angstroms)
 Number     Number       Type             X           Y           Z
 ---------------------------------------------------------------------
      1          6           0       -1.399599    0.697600    0.161237
      2          6           0       -0.302386    1.437419   -0.237590
      3          6           0        0.980292    0.909248   -0.228694
      4          6           0        0.980289   -0.909251   -0.228694
      5          6           0       -0.302389   -1.437419   -0.237590
      6          6           0       -1.399601   -0.697596    0.161237
      7          1           0       -2.345425    1.197155    0.271013
      8          1           0       -0.445592    2.414924   -0.662565
      9          1           0       -0.445599   -2.414922   -0.662565
     10          1           0       -2.345428   -1.197149    0.271011
     11          8           0        1.328304   -0.000001    0.734125
     12          1           0        1.807985   -1.390836   -0.714666
     13          1           0        1.807989    1.390832   -0.714666
 ---------------------------------------------------------------------
 Rotational constants (GHZ):      4.4557980      3.8172139      2.3152958
 Standard basis: 6-31G(d) (6D, 7F)
 There are   117 symmetry adapted cartesian basis functions of A   symmetry.
 There are   117 symmetry adapted basis functions of A   symmetry.
   117 basis functions,   220 primitive gaussians,   117 cartesian basis functions
    25 alpha electrons       25 beta electrons
       nuclear repulsion energy       282.9481340110 Hartrees.
 NAtoms=   13 NActive=   13 NUniq=   13 SFac= 1.00D+00 NAtFMM=   60 NAOKFM=F Big=F
 Integral buffers will be    131072 words long.
 Raffenetti 1 integral format.
 Two-electron integral symmetry is turned on.
 One-electron integrals computed using PRISM.
 NBasis=   117 RedAO= T EigKep=  7.91D-04  NBF=   117
 NBsUse=   117 1.00D-06 EigRej= -1.00D+00 NBFU=   117
 Initial guess from the checkpoint file:  "/tmp/Gau-20369.chk"
 B after Tr=     0.000000    0.000000    0.000000
         Rot=    1.000000    0.000000    0.000124   -0.000005 Ang=  -0.01 deg.
 ExpMin= 1.61D-01 ExpMax= 5.48D+03 ExpMxC= 8.25D+02 IAcc=1 IRadAn=         1 AccDes= 0.00D+00
 Harris functional with IExCor=  205 and IRadAn=       1 diagonalized for initial guess.
 HarFok:  IExCor=  205 AccDes= 0.00D+00 IRadAn=         1 IDoV= 1 UseB2=F ITyADJ=14
 ICtDFT=  3500011 ScaDFX=  1.000000  1.000000  1.000000  1.000000
 FoFCou: FMM=F IPFlag=           0 FMFlag=      100000 FMFlg1=           0
         NFxFlg=           0 DoJE=T BraDBF=F KetDBF=T FulRan=T
         wScrn=  0.000000 ICntrl=     500 IOpCl=  0 I1Cent=   200000004 NGrid=           0
         NMat0=    1 NMatS0=      1 NMatT0=    0 NMatD0=    1 NMtDS0=    0 NMtDT0=    0
 Petite list used in FoFCou.
 Keep R1 ints in memory in canonical form, NReq=24776612.
 Requested convergence on RMS density matrix=1.00D-08 within 128 cycles.
 Requested convergence on MAX density matrix=1.00D-06.
 Requested convergence on             energy=1.00D-06.
 No special actions if energy rises.
 SCF Done:  E(RHF) =  -305.462274986     A.U. after   12 cycles
            NFock= 12  Conv=0.40D-08     -V/T= 2.0010
 Calling FoFJK, ICntrl=      2127 FMM=F ISym2X=0 I1Cent= 0 IOpClX= 0 NMat=1 NMatS=1 NMatT=0.
 ***** Axes restored to original set *****
 -------------------------------------------------------------------
 Center     Atomic                   Forces (Hartrees/Bohr)
 Number     Number              X              Y              Z
 -------------------------------------------------------------------
      1        6          -0.000127300    0.000129546    0.000102179
      2        6          -0.000054706    0.000030878    0.000159435
      3        6           0.000503572    0.000052188   -0.000243575
      4        6           0.000503238   -0.000052863   -0.000243144
      5        6          -0.000054780   -0.000030436    0.000159086
      6        6          -0.000126778   -0.000129812    0.000102366
      7        1           0.000417169   -0.000212130    0.000021323
      8        1           0.000076678   -0.000400249   -0.000230491
      9        1           0.000076591    0.000400210   -0.000230407
     10        1           0.000417081    0.000212058    0.000021410
     11        8          -0.000366243    0.000000567    0.000959483
     12        1          -0.000632325    0.000409482   -0.000288808
     13        1          -0.000632197   -0.000409440   -0.000288857
 -------------------------------------------------------------------
 Cartesian Forces:  Max     0.000959483 RMS     0.000320650

 GradGradGradGradGradGradGradGradGradGradGradGradGradGradGradGradGradGrad
 Berny optimization.
 FormGI is forming the generalized inverse of G from B-inverse, IUseBI=4.
 Internal  Forces:  Max     0.000801577 RMS     0.000261910
 Search for a saddle point.
 Step number   2 out of a maximum of   66
 All quantities printed in internal units (Hartrees-Bohrs-Radians)
 Swapping is turned off.
 Update second derivatives using D2CorX and points    1    2
 ITU=  0  0
     Eigenvalues ---   -0.15531   0.02072   0.02110   0.02278   0.02839
     Eigenvalues ---    0.02875   0.03193   0.03572   0.04645   0.05029
     Eigenvalues ---    0.11040   0.12485   0.13181   0.13207   0.14140
     Eigenvalues ---    0.14321   0.16653   0.18547   0.20154   0.21323
     Eigenvalues ---    0.31597   0.33787   0.35543   0.35879   0.36129
     Eigenvalues ---    0.36159   0.36781   0.37112   0.42929   0.44062
     Eigenvalues ---    0.49244   0.49718   0.55462
 Eigenvectors required to have negative eigenvalues:
                          A19       D11       D16       D9        D15
   1                   -0.53004  -0.27808   0.27808  -0.27746   0.27746
                          D13       D19       R8        R4        R11
   1                    0.27115  -0.27115   0.23064   0.23064  -0.19978
 RFO step:  Lambda0=1.729146852D-08 Lambda=-9.76670999D-06.
 Linear search not attempted -- option 19 set.
 Iteration  1 RMS(Cart)=  0.00101852 RMS(Int)=  0.00000086
 Iteration  2 RMS(Cart)=  0.00000064 RMS(Int)=  0.00000030
 Variable       Old X    -DE/DX   Delta X   Delta X   Delta X     New X
                                 (Linear)    (Quad)   (Total)
    R1        2.61184   0.00040   0.00000   0.00074   0.00074   2.61258
    R2        2.63654   0.00032   0.00000   0.00036   0.00036   2.63690
    R3        2.03195   0.00047   0.00000   0.00121   0.00121   2.03316
    R4        2.62142   0.00034   0.00000   0.00046   0.00046   2.62187
    R5        2.03233   0.00047   0.00000   0.00119   0.00119   2.03352
    R6        2.58752   0.00071   0.00000   0.00159   0.00159   2.58912
    R7        2.02930   0.00080   0.00000   0.00208   0.00208   2.03138
    R8        2.62141   0.00034   0.00000   0.00046   0.00046   2.62187
    R9        2.58752   0.00070   0.00000   0.00159   0.00159   2.58912
   R10        2.02930   0.00080   0.00000   0.00208   0.00208   2.03138
   R11        2.61184   0.00040   0.00000   0.00074   0.00074   2.61258
   R12        2.03233   0.00046   0.00000   0.00119   0.00119   2.03352
   R13        2.03195   0.00047   0.00000   0.00121   0.00121   2.03316
    A1        2.13563   0.00006   0.00000   0.00011   0.00011   2.13574
    A2        2.07039  -0.00003   0.00000  -0.00013  -0.00013   2.07027
    A3        2.05396  -0.00003   0.00000  -0.00011  -0.00011   2.05385
    A4        2.12750  -0.00001   0.00000  -0.00007  -0.00007   2.12743
    A5        2.08844   0.00000   0.00000  -0.00015  -0.00015   2.08829
    A6        2.06204   0.00001   0.00000   0.00009   0.00008   2.06213
    A7        2.08559  -0.00005   0.00000  -0.00030  -0.00030   2.08529
    A8        2.14010   0.00002   0.00000   0.00006   0.00006   2.14015
    A9        2.00437   0.00001   0.00000  -0.00041  -0.00042   2.00395
   A10        2.08559  -0.00005   0.00000  -0.00030  -0.00030   2.08529
   A11        2.14010   0.00002   0.00000   0.00006   0.00006   2.14015
   A12        2.00437   0.00001   0.00000  -0.00041  -0.00042   2.00395
   A13        2.12750  -0.00001   0.00000  -0.00007  -0.00007   2.12743
   A14        2.06204   0.00001   0.00000   0.00009   0.00008   2.06213
   A15        2.08844   0.00000   0.00000  -0.00015  -0.00015   2.08829
   A16        2.13563   0.00006   0.00000   0.00011   0.00011   2.13574
   A17        2.05396  -0.00003   0.00000  -0.00011  -0.00011   2.05385
   A18        2.07039  -0.00003   0.00000  -0.00013  -0.00013   2.07027
   A19        1.45243   0.00003   0.00000  -0.00044  -0.00044   1.45199
    D1       -0.38889   0.00002   0.00000   0.00015   0.00015  -0.38874
    D2        2.64126  -0.00001   0.00000  -0.00123  -0.00123   2.64003
    D3        2.98789   0.00003   0.00000   0.00082   0.00082   2.98871
    D4       -0.26514   0.00000   0.00000  -0.00056  -0.00056  -0.26571
    D5        0.00000   0.00000   0.00000   0.00000   0.00000   0.00000
    D6       -2.90849   0.00001   0.00000   0.00066   0.00066  -2.90783
    D7        2.90850  -0.00001   0.00000  -0.00066  -0.00066   2.90783
    D8        0.00000   0.00000   0.00000   0.00000   0.00000   0.00000
    D9       -0.58339   0.00000   0.00000  -0.00039  -0.00039  -0.58377
   D10        2.92053   0.00004   0.00000   0.00187   0.00187   2.92240
   D11        2.66803   0.00003   0.00000   0.00099   0.00099   2.66902
   D12       -0.11124   0.00006   0.00000   0.00324   0.00324  -0.10799
   D13        1.65356  -0.00003   0.00000   0.00037   0.00037   1.65393
   D14       -1.82326  -0.00006   0.00000  -0.00162  -0.00162  -1.82488
   D15        0.58339   0.00000   0.00000   0.00039   0.00039   0.58377
   D16       -2.66803  -0.00003   0.00000  -0.00099  -0.00099  -2.66902
   D17       -2.92053  -0.00004   0.00000  -0.00187  -0.00187  -2.92240
   D18        0.11124  -0.00006   0.00000  -0.00324  -0.00324   0.10799
   D19       -1.65356   0.00003   0.00000  -0.00037  -0.00037  -1.65393
   D20        1.82326   0.00007   0.00000   0.00162   0.00162   1.82488
   D21        0.38889  -0.00002   0.00000  -0.00015  -0.00015   0.38874
   D22       -2.98789  -0.00003   0.00000  -0.00081  -0.00081  -2.98871
   D23       -2.64126   0.00001   0.00000   0.00123   0.00123  -2.64003
   D24        0.26514   0.00000   0.00000   0.00056   0.00056   0.26571
         Item               Value     Threshold  Converged?
 Maximum Force            0.000802     0.000450     NO 
 RMS     Force            0.000262     0.000300     YES
 Maximum Displacement     0.003217     0.001800     NO 
 RMS     Displacement     0.001019     0.001200     YES
 Predicted change in Energy=-4.874709D-06
 GradGradGradGradGradGradGradGradGradGradGradGradGradGradGradGradGradGrad

                          Input orientation:                          
 ---------------------------------------------------------------------
 Center     Atomic      Atomic             Coordinates (Angstroms)
 Number     Number       Type             X           Y           Z
 ---------------------------------------------------------------------
      1          6           0        1.401352   -0.697707    0.160680
      2          6           0        0.304855   -1.437856   -0.240860
      3          6           0       -0.978058   -0.909578   -0.235189
      4          6           0       -0.978044    0.909592   -0.235192
      5          6           0        0.304878    1.437849   -0.240863
      6          6           0        1.401363    0.697682    0.160678
      7          1           0        2.347599   -1.197457    0.272168
      8          1           0        0.449484   -2.415451   -0.666731
      9          1           0        0.449523    2.415441   -0.666737
     10          1           0        2.347619    1.197417    0.272165
     11          8           0       -1.328400    0.000011    0.727664
     12          1           0       -1.805769    1.392549   -0.722182
     13          1           0       -1.805792   -1.392523   -0.722179
 ---------------------------------------------------------------------
                    Distance matrix (angstroms):
                    1          2          3          4          5
     1  C    0.000000
     2  C    1.382520   0.000000
     3  C    2.421404   1.387435   0.000000
     4  C    2.898559   2.675140   1.819170   0.000000
     5  C    2.433945   2.875705   2.675140   1.387435   0.000000
     6  C    1.395389   2.433945   2.898559   2.421404   1.382520
     7  H    1.075901   2.119857   3.376431   3.969505   3.373536
     8  H    2.131035   1.076093   2.119377   3.644170   3.879458
     9  H    3.358911   3.879458   3.644170   2.119377   1.076093
    10  H    2.121166   3.373536   3.969505   3.376431   2.119857
    11  O    2.873991   2.381810   1.370101   1.370101   2.381810
    12  H    3.928644   3.563369   2.494406   1.074960   2.165307
    13  H    3.398232   2.165307   1.074960   2.494405   3.563369
                    6          7          8          9         10
     6  C    0.000000
     7  H    2.121166   0.000000
     8  H    3.358911   2.442925   0.000000
     9  H    2.131035   4.187752   4.830892   0.000000
    10  H    1.075901   2.394874   4.187752   2.442925   0.000000
    11  O    2.873991   3.892862   3.307516   3.307516   3.892862
    12  H    3.398232   4.994731   4.426072   2.477040   4.275212
    13  H    3.928644   4.275212   2.477040   4.426072   4.994731
                   11         12         13
    11  O    0.000000
    12  H    2.066180   0.000000
    13  H    2.066180   2.785072   0.000000
 Stoichiometry    C6H6O
 Framework group  C1[X(C6H6O)]
 Deg. of freedom    33
 Full point group                 C1      NOp   1
 Largest Abelian subgroup         C1      NOp   1
 Largest concise Abelian subgroup C1      NOp   1
                         Standard orientation:                         
 ---------------------------------------------------------------------
 Center     Atomic      Atomic             Coordinates (Angstroms)
 Number     Number       Type             X           Y           Z
 ---------------------------------------------------------------------
      1          6           0       -1.399853    0.697694    0.161470
      2          6           0       -0.302463    1.437853   -0.237608
      3          6           0        0.980438    0.909585   -0.229057
      4          6           0        0.980439   -0.909585   -0.229057
      5          6           0       -0.302463   -1.437853   -0.237608
      6          6           0       -1.399853   -0.697695    0.161470
      7          1           0       -2.346352    1.197437    0.270834
      8          1           0       -0.446144    2.415446   -0.663804
      9          1           0       -0.446143   -2.415446   -0.663804
     10          1           0       -2.346352   -1.197437    0.270834
     11          8           0        1.328625    0.000000    0.734581
     12          1           0        1.809260   -1.392536   -0.714188
     13          1           0        1.809259    1.392536   -0.714188
 ---------------------------------------------------------------------
 Rotational constants (GHZ):      4.4525647      3.8150228      2.3140098
 Standard basis: 6-31G(d) (6D, 7F)
 There are   117 symmetry adapted cartesian basis functions of A   symmetry.
 There are   117 symmetry adapted basis functions of A   symmetry.
   117 basis functions,   220 primitive gaussians,   117 cartesian basis functions
    25 alpha electrons       25 beta electrons
       nuclear repulsion energy       282.8475368697 Hartrees.
 NAtoms=   13 NActive=   13 NUniq=   13 SFac= 1.00D+00 NAtFMM=   60 NAOKFM=F Big=F
 Integral buffers will be    131072 words long.
 Raffenetti 1 integral format.
 Two-electron integral symmetry is turned on.
 One-electron integrals computed using PRISM.
 NBasis=   117 RedAO= T EigKep=  7.93D-04  NBF=   117
 NBsUse=   117 1.00D-06 EigRej= -1.00D+00 NBFU=   117
 Initial guess from the checkpoint file:  "/tmp/Gau-20369.chk"
 B after Tr=     0.000000    0.000000    0.000000
         Rot=    1.000000    0.000000    0.000005   -0.000001 Ang=   0.00 deg.
 Keep R1 ints in memory in canonical form, NReq=24776612.
 Requested convergence on RMS density matrix=1.00D-08 within 128 cycles.
 Requested convergence on MAX density matrix=1.00D-06.
 Requested convergence on             energy=1.00D-06.
 No special actions if energy rises.
 SCF Done:  E(RHF) =  -305.462279576     A.U. after   10 cycles
            NFock= 10  Conv=0.33D-08     -V/T= 2.0011
 Calling FoFJK, ICntrl=      2127 FMM=F ISym2X=0 I1Cent= 0 IOpClX= 0 NMat=1 NMatS=1 NMatT=0.
 ***** Axes restored to original set *****
 -------------------------------------------------------------------
 Center     Atomic                   Forces (Hartrees/Bohr)
 Number     Number              X              Y              Z
 -------------------------------------------------------------------
      1        6           0.000011330   -0.000018956   -0.000000458
      2        6           0.000012940   -0.000009235   -0.000010104
      3        6          -0.000061069   -0.000005078    0.000011388
      4        6          -0.000061044    0.000005167    0.000011310
      5        6           0.000012955    0.000009200   -0.000010089
      6        6           0.000011289    0.000018973   -0.000000469
      7        1          -0.000018976    0.000009887   -0.000001777
      8        1          -0.000003349    0.000017994    0.000009776
      9        1          -0.000003346   -0.000017985    0.000009770
     10        1          -0.000018965   -0.000009880   -0.000001778
     11        8           0.000024077   -0.000000077   -0.000068603
     12        1           0.000047087   -0.000031589    0.000025519
     13        1           0.000047070    0.000031580    0.000025514
 -------------------------------------------------------------------
 Cartesian Forces:  Max     0.000068603 RMS     0.000024935

 GradGradGradGradGradGradGradGradGradGradGradGradGradGradGradGradGradGrad
 Berny optimization.
 FormGI is forming the generalized inverse of G from B-inverse, IUseBI=4.
 Internal  Forces:  Max     0.000062010 RMS     0.000015785
 Search for a saddle point.
 Step number   3 out of a maximum of   66
 All quantities printed in internal units (Hartrees-Bohrs-Radians)
 Swapping is turned off.
 Update second derivatives using D2CorX and points    1    2    3
 ITU=  0  0  0
     Eigenvalues ---   -0.15538   0.01679   0.02110   0.02278   0.02789
     Eigenvalues ---    0.02839   0.03193   0.03572   0.04645   0.05027
     Eigenvalues ---    0.11041   0.12484   0.13181   0.13207   0.14140
     Eigenvalues ---    0.14322   0.16655   0.18547   0.20154   0.21327
     Eigenvalues ---    0.31648   0.33787   0.35609   0.35879   0.36129
     Eigenvalues ---    0.36160   0.36781   0.37829   0.43115   0.44062
     Eigenvalues ---    0.49244   0.49749   0.55702
 Eigenvectors required to have negative eigenvalues:
                          A19       D9        D15       D11       D16
   1                   -0.53008  -0.27749   0.27749  -0.27723   0.27722
                          D13       D19       R8        R4        R11
   1                    0.27134  -0.27134   0.23073   0.23073  -0.19975
 RFO step:  Lambda0=1.126855415D-10 Lambda=-3.58282473D-08.
 Linear search not attempted -- option 19 set.
 Iteration  1 RMS(Cart)=  0.00004613 RMS(Int)=  0.00000000
 Iteration  2 RMS(Cart)=  0.00000000 RMS(Int)=  0.00000000
 Variable       Old X    -DE/DX   Delta X   Delta X   Delta X     New X
                                 (Linear)    (Quad)   (Total)
    R1        2.61258  -0.00001   0.00000  -0.00003  -0.00003   2.61256
    R2        2.63690   0.00000   0.00000   0.00002   0.00002   2.63693
    R3        2.03316  -0.00002   0.00000  -0.00005  -0.00005   2.03311
    R4        2.62187   0.00000   0.00000   0.00002   0.00002   2.62189
    R5        2.03352  -0.00002   0.00000  -0.00005  -0.00005   2.03347
    R6        2.58912  -0.00004   0.00000  -0.00010  -0.00010   2.58901
    R7        2.03138  -0.00006   0.00000  -0.00016  -0.00016   2.03122
    R8        2.62187   0.00000   0.00000   0.00002   0.00002   2.62189
    R9        2.58912  -0.00004   0.00000  -0.00010  -0.00010   2.58901
   R10        2.03138  -0.00006   0.00000  -0.00016  -0.00016   2.03122
   R11        2.61258  -0.00001   0.00000  -0.00003  -0.00003   2.61256
   R12        2.03352  -0.00002   0.00000  -0.00005  -0.00005   2.03347
   R13        2.03316  -0.00002   0.00000  -0.00005  -0.00005   2.03311
    A1        2.13574   0.00000   0.00000  -0.00001  -0.00001   2.13573
    A2        2.07027   0.00000   0.00000   0.00001   0.00001   2.07028
    A3        2.05385   0.00000   0.00000   0.00000   0.00000   2.05385
    A4        2.12743   0.00000   0.00000   0.00000   0.00000   2.12744
    A5        2.08829   0.00000   0.00000   0.00001   0.00001   2.08830
    A6        2.06213   0.00000   0.00000   0.00000   0.00000   2.06212
    A7        2.08529   0.00000   0.00000   0.00001   0.00001   2.08530
    A8        2.14015   0.00000   0.00000   0.00001   0.00001   2.14016
    A9        2.00395   0.00000   0.00000   0.00001   0.00001   2.00397
   A10        2.08529   0.00000   0.00000   0.00001   0.00001   2.08530
   A11        2.14015   0.00000   0.00000   0.00001   0.00001   2.14016
   A12        2.00395   0.00000   0.00000   0.00001   0.00001   2.00397
   A13        2.12743   0.00000   0.00000   0.00000   0.00000   2.12744
   A14        2.06213   0.00000   0.00000   0.00000   0.00000   2.06212
   A15        2.08829   0.00000   0.00000   0.00001   0.00001   2.08830
   A16        2.13574   0.00000   0.00000  -0.00001  -0.00001   2.13573
   A17        2.05385   0.00000   0.00000   0.00000   0.00000   2.05385
   A18        2.07027   0.00000   0.00000   0.00001   0.00001   2.07028
   A19        1.45199   0.00001   0.00000   0.00004   0.00004   1.45204
    D1       -0.38874   0.00000   0.00000  -0.00002  -0.00002  -0.38876
    D2        2.64003   0.00000   0.00000   0.00004   0.00004   2.64006
    D3        2.98871   0.00000   0.00000  -0.00002  -0.00002   2.98869
    D4       -0.26571   0.00000   0.00000   0.00004   0.00004  -0.26566
    D5        0.00000   0.00000   0.00000   0.00000   0.00000   0.00000
    D6       -2.90783   0.00000   0.00000   0.00000   0.00000  -2.90783
    D7        2.90783   0.00000   0.00000   0.00000   0.00000   2.90783
    D8        0.00000   0.00000   0.00000   0.00000   0.00000   0.00000
    D9       -0.58377   0.00000   0.00000   0.00005   0.00005  -0.58373
   D10        2.92240   0.00000   0.00000  -0.00006  -0.00006   2.92234
   D11        2.66902   0.00000   0.00000  -0.00001  -0.00001   2.66900
   D12       -0.10799   0.00000   0.00000  -0.00012  -0.00012  -0.10811
   D13        1.65393   0.00000   0.00000  -0.00002  -0.00002   1.65391
   D14       -1.82488   0.00000   0.00000   0.00008   0.00008  -1.82481
   D15        0.58377   0.00000   0.00000  -0.00005  -0.00005   0.58373
   D16       -2.66902   0.00000   0.00000   0.00001   0.00001  -2.66900
   D17       -2.92240   0.00000   0.00000   0.00006   0.00006  -2.92234
   D18        0.10799   0.00000   0.00000   0.00012   0.00012   0.10811
   D19       -1.65393   0.00000   0.00000   0.00002   0.00002  -1.65391
   D20        1.82488   0.00000   0.00000  -0.00008  -0.00008   1.82481
   D21        0.38874   0.00000   0.00000   0.00002   0.00002   0.38876
   D22       -2.98871   0.00000   0.00000   0.00002   0.00002  -2.98869
   D23       -2.64003   0.00000   0.00000  -0.00004  -0.00004  -2.64006
   D24        0.26571   0.00000   0.00000  -0.00004  -0.00004   0.26566
         Item               Value     Threshold  Converged?
 Maximum Force            0.000062     0.000450     YES
 RMS     Force            0.000016     0.000300     YES
 Maximum Displacement     0.000177     0.001800     YES
 RMS     Displacement     0.000046     0.001200     YES
 Predicted change in Energy=-1.785778D-08
 Optimization completed.
    -- Stationary point found.
                           ----------------------------
                           !   Optimized Parameters   !
                           ! (Angstroms and Degrees)  !
 --------------------------                            --------------------------
 ! Name  Definition              Value          Derivative Info.                !
 --------------------------------------------------------------------------------
 ! R1    R(1,2)                  1.3825         -DE/DX =    0.0                 !
 ! R2    R(1,6)                  1.3954         -DE/DX =    0.0                 !
 ! R3    R(1,7)                  1.0759         -DE/DX =    0.0                 !
 ! R4    R(2,3)                  1.3874         -DE/DX =    0.0                 !
 ! R5    R(2,8)                  1.0761         -DE/DX =    0.0                 !
 ! R6    R(3,11)                 1.3701         -DE/DX =    0.0                 !
 ! R7    R(3,13)                 1.075          -DE/DX =   -0.0001              !
 ! R8    R(4,5)                  1.3874         -DE/DX =    0.0                 !
 ! R9    R(4,11)                 1.3701         -DE/DX =    0.0                 !
 ! R10   R(4,12)                 1.075          -DE/DX =   -0.0001              !
 ! R11   R(5,6)                  1.3825         -DE/DX =    0.0                 !
 ! R12   R(5,9)                  1.0761         -DE/DX =    0.0                 !
 ! R13   R(6,10)                 1.0759         -DE/DX =    0.0                 !
 ! A1    A(2,1,6)              122.3689         -DE/DX =    0.0                 !
 ! A2    A(2,1,7)              118.6176         -DE/DX =    0.0                 !
 ! A3    A(6,1,7)              117.6771         -DE/DX =    0.0                 !
 ! A4    A(1,2,3)              121.893          -DE/DX =    0.0                 !
 ! A5    A(1,2,8)              119.6504         -DE/DX =    0.0                 !
 ! A6    A(3,2,8)              118.1513         -DE/DX =    0.0                 !
 ! A7    A(2,3,11)             119.4783         -DE/DX =    0.0                 !
 ! A8    A(2,3,13)             122.6218         -DE/DX =    0.0                 !
 ! A9    A(11,3,13)            114.818          -DE/DX =    0.0                 !
 ! A10   A(5,4,11)             119.4783         -DE/DX =    0.0                 !
 ! A11   A(5,4,12)             122.6218         -DE/DX =    0.0                 !
 ! A12   A(11,4,12)            114.818          -DE/DX =    0.0                 !
 ! A13   A(4,5,6)              121.893          -DE/DX =    0.0                 !
 ! A14   A(4,5,9)              118.1513         -DE/DX =    0.0                 !
 ! A15   A(6,5,9)              119.6504         -DE/DX =    0.0                 !
 ! A16   A(1,6,5)              122.3689         -DE/DX =    0.0                 !
 ! A17   A(1,6,10)             117.6771         -DE/DX =    0.0                 !
 ! A18   A(5,6,10)             118.6176         -DE/DX =    0.0                 !
 ! A19   A(3,11,4)              83.1932         -DE/DX =    0.0                 !
 ! D1    D(6,1,2,3)            -22.2733         -DE/DX =    0.0                 !
 ! D2    D(6,1,2,8)            151.2624         -DE/DX =    0.0                 !
 ! D3    D(7,1,2,3)            171.2404         -DE/DX =    0.0                 !
 ! D4    D(7,1,2,8)            -15.2239         -DE/DX =    0.0                 !
 ! D5    D(2,1,6,5)              0.0            -DE/DX =    0.0                 !
 ! D6    D(2,1,6,10)          -166.6067         -DE/DX =    0.0                 !
 ! D7    D(7,1,6,5)            166.6067         -DE/DX =    0.0                 !
 ! D8    D(7,1,6,10)             0.0            -DE/DX =    0.0                 !
 ! D9    D(1,2,3,11)           -33.4477         -DE/DX =    0.0                 !
 ! D10   D(1,2,3,13)           167.4412         -DE/DX =    0.0                 !
 ! D11   D(8,2,3,11)           152.9236         -DE/DX =    0.0                 !
 ! D12   D(8,2,3,13)            -6.1876         -DE/DX =    0.0                 !
 ! D13   D(2,3,11,4)            94.7632         -DE/DX =    0.0                 !
 ! D14   D(13,3,11,4)         -104.5581         -DE/DX =    0.0                 !
 ! D15   D(11,4,5,6)            33.4477         -DE/DX =    0.0                 !
 ! D16   D(11,4,5,9)          -152.9236         -DE/DX =    0.0                 !
 ! D17   D(12,4,5,6)          -167.4412         -DE/DX =    0.0                 !
 ! D18   D(12,4,5,9)             6.1876         -DE/DX =    0.0                 !
 ! D19   D(5,4,11,3)           -94.7632         -DE/DX =    0.0                 !
 ! D20   D(12,4,11,3)          104.5581         -DE/DX =    0.0                 !
 ! D21   D(4,5,6,1)             22.2733         -DE/DX =    0.0                 !
 ! D22   D(4,5,6,10)          -171.2404         -DE/DX =    0.0                 !
 ! D23   D(9,5,6,1)           -151.2624         -DE/DX =    0.0                 !
 ! D24   D(9,5,6,10)            15.2239         -DE/DX =    0.0                 !
 --------------------------------------------------------------------------------
 GradGradGradGradGradGradGradGradGradGradGradGradGradGradGradGradGradGrad

                          Input orientation:                          
 ---------------------------------------------------------------------
 Center     Atomic      Atomic             Coordinates (Angstroms)
 Number     Number       Type             X           Y           Z
 ---------------------------------------------------------------------
      1          6           0        1.401352   -0.697707    0.160680
      2          6           0        0.304855   -1.437856   -0.240860
      3          6           0       -0.978058   -0.909578   -0.235189
      4          6           0       -0.978044    0.909592   -0.235192
      5          6           0        0.304878    1.437849   -0.240863
      6          6           0        1.401363    0.697682    0.160678
      7          1           0        2.347599   -1.197457    0.272168
      8          1           0        0.449484   -2.415451   -0.666731
      9          1           0        0.449523    2.415441   -0.666737
     10          1           0        2.347619    1.197417    0.272165
     11          8           0       -1.328400    0.000011    0.727664
     12          1           0       -1.805769    1.392549   -0.722182
     13          1           0       -1.805792   -1.392523   -0.722179
 ---------------------------------------------------------------------
                    Distance matrix (angstroms):
                    1          2          3          4          5
     1  C    0.000000
     2  C    1.382520   0.000000
     3  C    2.421404   1.387435   0.000000
     4  C    2.898559   2.675140   1.819170   0.000000
     5  C    2.433945   2.875705   2.675140   1.387435   0.000000
     6  C    1.395389   2.433945   2.898559   2.421404   1.382520
     7  H    1.075901   2.119857   3.376431   3.969505   3.373536
     8  H    2.131035   1.076093   2.119377   3.644170   3.879458
     9  H    3.358911   3.879458   3.644170   2.119377   1.076093
    10  H    2.121166   3.373536   3.969505   3.376431   2.119857
    11  O    2.873991   2.381810   1.370101   1.370101   2.381810
    12  H    3.928644   3.563369   2.494406   1.074960   2.165307
    13  H    3.398232   2.165307   1.074960   2.494405   3.563369
                    6          7          8          9         10
     6  C    0.000000
     7  H    2.121166   0.000000
     8  H    3.358911   2.442925   0.000000
     9  H    2.131035   4.187752   4.830892   0.000000
    10  H    1.075901   2.394874   4.187752   2.442925   0.000000
    11  O    2.873991   3.892862   3.307516   3.307516   3.892862
    12  H    3.398232   4.994731   4.426072   2.477040   4.275212
    13  H    3.928644   4.275212   2.477040   4.426072   4.994731
                   11         12         13
    11  O    0.000000
    12  H    2.066180   0.000000
    13  H    2.066180   2.785072   0.000000
 Stoichiometry    C6H6O
 Framework group  C1[X(C6H6O)]
 Deg. of freedom    33
 Full point group                 C1      NOp   1
 Largest Abelian subgroup         C1      NOp   1
 Largest concise Abelian subgroup C1      NOp   1
                         Standard orientation:                         
 ---------------------------------------------------------------------
 Center     Atomic      Atomic             Coordinates (Angstroms)
 Number     Number       Type             X           Y           Z
 ---------------------------------------------------------------------
      1          6           0       -1.399853    0.697694    0.161470
      2          6           0       -0.302463    1.437853   -0.237608
      3          6           0        0.980438    0.909585   -0.229057
      4          6           0        0.980439   -0.909585   -0.229057
      5          6           0       -0.302463   -1.437853   -0.237608
      6          6           0       -1.399853   -0.697695    0.161470
      7          1           0       -2.346352    1.197437    0.270834
      8          1           0       -0.446144    2.415446   -0.663804
      9          1           0       -0.446143   -2.415446   -0.663804
     10          1           0       -2.346352   -1.197437    0.270834
     11          8           0        1.328625    0.000000    0.734581
     12          1           0        1.809260   -1.392536   -0.714188
     13          1           0        1.809259    1.392536   -0.714188
 ---------------------------------------------------------------------
 Rotational constants (GHZ):      4.4525647      3.8150228      2.3140098

 **********************************************************************

            Population analysis using the SCF density.

 **********************************************************************

 Orbital symmetries:
       Occupied  (A) (A) (A) (A) (A) (A) (A) (A) (A) (A) (A) (A)
                 (A) (A) (A) (A) (A) (A) (A) (A) (A) (A) (A) (A)
                 (A)
       Virtual   (A) (A) (A) (A) (A) (A) (A) (A) (A) (A) (A) (A)
                 (A) (A) (A) (A) (A) (A) (A) (A) (A) (A) (A) (A)
                 (A) (A) (A) (A) (A) (A) (A) (A) (A) (A) (A) (A)
                 (A) (A) (A) (A) (A) (A) (A) (A) (A) (A) (A) (A)
                 (A) (A) (A) (A) (A) (A) (A) (A) (A) (A) (A) (A)
                 (A) (A) (A) (A) (A) (A) (A) (A) (A) (A) (A) (A)
                 (A) (A) (A) (A) (A) (A) (A) (A) (A) (A) (A) (A)
                 (A) (A) (A) (A) (A) (A) (A) (A)
 The electronic state is 1-A.
 Alpha  occ. eigenvalues --  -20.59134 -11.30205 -11.30188 -11.23463 -11.23353
 Alpha  occ. eigenvalues --  -11.23105 -11.23101  -1.44912  -1.11352  -1.04617
 Alpha  occ. eigenvalues --   -0.94612  -0.87905  -0.79054  -0.73116  -0.71700
 Alpha  occ. eigenvalues --   -0.65112  -0.63278  -0.62852  -0.58316  -0.53352
 Alpha  occ. eigenvalues --   -0.51758  -0.47873  -0.45435  -0.32095  -0.31890
 Alpha virt. eigenvalues --    0.13326   0.14758   0.23631   0.27835   0.28743
 Alpha virt. eigenvalues --    0.30354   0.32736   0.33536   0.35910   0.36967
 Alpha virt. eigenvalues --    0.46059   0.49148   0.50398   0.51463   0.68022
 Alpha virt. eigenvalues --    0.68615   0.70720   0.73910   0.75588   0.77238
 Alpha virt. eigenvalues --    0.78605   0.81034   0.82263   0.84105   0.84636
 Alpha virt. eigenvalues --    0.87824   0.91338   0.95192   0.95485   1.05950
 Alpha virt. eigenvalues --    1.10448   1.10893   1.11350   1.11719   1.13300
 Alpha virt. eigenvalues --    1.14840   1.14988   1.17422   1.19986   1.22711
 Alpha virt. eigenvalues --    1.27790   1.30101   1.30277   1.36574   1.42713
 Alpha virt. eigenvalues --    1.52025   1.53002   1.61683   1.65239   1.67059
 Alpha virt. eigenvalues --    1.72751   1.75509   1.78869   1.85448   1.89109
 Alpha virt. eigenvalues --    2.00406   2.08750   2.14844   2.17019   2.20075
 Alpha virt. eigenvalues --    2.26231   2.26450   2.31462   2.36918   2.38048
 Alpha virt. eigenvalues --    2.46668   2.46695   2.54067   2.57918   2.62088
 Alpha virt. eigenvalues --    2.62929   2.76069   2.77232   2.79952   2.91763
 Alpha virt. eigenvalues --    2.94158   2.95299   3.00061   3.01161   3.06851
 Alpha virt. eigenvalues --    3.14379   3.31984   3.34781   3.35573   3.65786
 Alpha virt. eigenvalues --    4.33253   4.52069   4.58950   4.61937   4.77032
 Alpha virt. eigenvalues --    4.83786   5.03354
          Condensed to atoms (all electrons):
               1          2          3          4          5          6
     1  C    4.891833   0.552241  -0.051846  -0.015748  -0.052514   0.548411
     2  C    0.552241   4.970929   0.526477  -0.028906  -0.031670  -0.052514
     3  C   -0.051846   0.526477   4.821684   0.144167  -0.028906  -0.015748
     4  C   -0.015748  -0.028906   0.144167   4.821684   0.526477  -0.051846
     5  C   -0.052514  -0.031670  -0.028906   0.526477   4.970929   0.552241
     6  C    0.548411  -0.052514  -0.015748  -0.051846   0.552241   4.891833
     7  H    0.389126  -0.033533   0.002847   0.000230   0.002732  -0.034430
     8  H   -0.028412   0.379067  -0.031885   0.000675   0.000106   0.002127
     9  H    0.002127   0.000106   0.000675  -0.031885   0.379067  -0.028412
    10  H   -0.034430   0.002732   0.000230   0.002847  -0.033533   0.389126
    11  O   -0.000089  -0.059993   0.195022   0.195022  -0.059993  -0.000089
    12  H    0.000117  -0.000223   0.001297   0.396746  -0.047282   0.003298
    13  H    0.003298  -0.047282   0.396746   0.001297  -0.000223   0.000117
               7          8          9         10         11         12
     1  C    0.389126  -0.028412   0.002127  -0.034430  -0.000089   0.000117
     2  C   -0.033533   0.379067   0.000106   0.002732  -0.059993  -0.000223
     3  C    0.002847  -0.031885   0.000675   0.000230   0.195022   0.001297
     4  C    0.000230   0.000675  -0.031885   0.002847   0.195022   0.396746
     5  C    0.002732   0.000106   0.379067  -0.033533  -0.059993  -0.047282
     6  C   -0.034430   0.002127  -0.028412   0.389126  -0.000089   0.003298
     7  H    0.481768  -0.001772  -0.000126  -0.002779  -0.000011   0.000005
     8  H   -0.001772   0.471972   0.000015  -0.000126   0.001892   0.000006
     9  H   -0.000126   0.000015   0.471972  -0.001772   0.001892   0.000218
    10  H   -0.002779  -0.000126  -0.001772   0.481768  -0.000011  -0.000097
    11  O   -0.000011   0.001892   0.001892  -0.000011   8.331992  -0.039579
    12  H    0.000005   0.000006   0.000218  -0.000097  -0.039579   0.481669
    13  H   -0.000097   0.000218   0.000006   0.000005  -0.039579   0.000445
              13
     1  C    0.003298
     2  C   -0.047282
     3  C    0.396746
     4  C    0.001297
     5  C   -0.000223
     6  C    0.000117
     7  H   -0.000097
     8  H    0.000218
     9  H    0.000006
    10  H    0.000005
    11  O   -0.039579
    12  H    0.000445
    13  H    0.481669
 Mulliken charges:
               1
     1  C   -0.204112
     2  C   -0.177428
     3  C    0.039239
     4  C    0.039240
     5  C   -0.177428
     6  C   -0.204112
     7  H    0.196041
     8  H    0.206117
     9  H    0.206117
    10  H    0.196041
    11  O   -0.526477
    12  H    0.203382
    13  H    0.203382
 Sum of Mulliken charges =   0.00000
 Mulliken charges with hydrogens summed into heavy atoms:
               1
     1  C   -0.008072
     2  C    0.028689
     3  C    0.242621
     4  C    0.242621
     5  C    0.028689
     6  C   -0.008072
    11  O   -0.526477
 Electronic spatial extent (au):  <R**2>=            570.6735
 Charge=              0.0000 electrons
 Dipole moment (field-independent basis, Debye):
    X=             -0.4080    Y=              0.0000    Z=             -1.8964  Tot=              1.9398
 Quadrupole moment (field-independent basis, Debye-Ang):
   XX=            -37.5218   YY=            -35.9891   ZZ=            -44.6528
   XY=              0.0000   XZ=             -3.3869   YZ=              0.0000
 Traceless Quadrupole moment (field-independent basis, Debye-Ang):
   XX=              1.8661   YY=              3.3988   ZZ=             -5.2649
   XY=              0.0000   XZ=             -3.3869   YZ=              0.0000
 Octapole moment (field-independent basis, Debye-Ang**2):
  XXX=              0.9093  YYY=              0.0000  ZZZ=              2.0797  XYY=              1.8536
  XXY=              0.0000  XXZ=             -2.4829  XZZ=              2.8091  YZZ=              0.0000
  YYZ=             -5.2777  XYZ=              0.0000
 Hexadecapole moment (field-independent basis, Debye-Ang**3):
 XXXX=           -333.0917 YYYY=           -304.6327 ZZZZ=            -81.3546 XXXY=              0.0000
 XXXZ=            -10.6658 YYYX=              0.0000 YYYZ=              0.0000 ZZZX=              2.6102
 ZZZY=              0.0000 XXYY=           -101.1463 XXZZ=            -76.9534 YYZZ=            -66.7453
 XXYZ=              0.0000 YYXZ=             -0.5392 ZZXY=              0.0000
 N-N= 2.828475368697D+02 E-N=-1.279917935668D+03  KE= 3.051339073608D+02
 1\1\GINC-QC0019\FTS\RHF\6-31G(d)\C6H6O1\ELIOT\04-Oct-2018\0\\# opt(ts,
  calcfc, noeigen) hf/6-31g*\\ts.log\\0,1\C,1.4013518856,-0.6977066022,
 0.1606795814\C,0.304854802,-1.4378561759,-0.2408596672\C,-0.9780584612
 ,-0.9095781495,-0.235189431\C,-0.978043518,0.9095921083,-0.2351915605\
 C,0.304878456,1.4378490384,-0.2408631418\C,1.4013633798,0.6976823491,0
 .1606778904\H,2.3475991878,-1.1974569509,0.2721677695\H,0.4494835879,-
 2.4154512568,-0.6667312613\H,0.4495233169,2.4154406974,-0.6667370916\H
 ,2.3476188985,1.1974173722,0.2721648885\O,-1.3283996787,0.0000111066,0
 .7276636363\H,-1.8057694815,1.3925493898,-0.7221824655\H,-1.805792375,
 -1.3925229265,-0.7221791474\\Version=ES64L-G09RevE.01\State=1-A\HF=-30
 5.4622796\RMSD=3.326e-09\RMSF=2.494e-05\Dipole=0.1621872,-0.0000023,-0
 .7457568\Quadrupole=1.3760778,2.5269235,-3.9030014,0.0000125,2.5299821
 ,-0.0000283\PG=C01 [X(C6H6O1)]\\@


 HOW IS IT THAT THE SKY FEEDS THE STARS?

                           -- LUCRETIUS
 Job cpu time:       0 days  0 hours  0 minutes 56.6 seconds.
 File lengths (MBytes):  RWF=     25 Int=      0 D2E=      0 Chk=      2 Scr=      1
 Normal termination of Gaussian 09 at Thu Oct  4 09:08:16 2018.
