 Entering Gaussian System, Link 0=/home/eliot/software/g09E01/g09
 Initial command:
 /home/eliot/software/g09E01/l1.exe "/tmp/Gau-8289.inp" -scrdir="/tmp/"
 Entering Link 1 = /home/eliot/software/g09E01/l1.exe PID=      8291.
  
 Copyright (c) 1988,1990,1992,1993,1995,1998,2003,2009,2015,
            Gaussian, Inc.  All Rights Reserved.
  
 This is part of the Gaussian(R) 09 program.  It is based on
 the Gaussian(R) 03 system (copyright 2003, Gaussian, Inc.),
 the Gaussian(R) 98 system (copyright 1998, Gaussian, Inc.),
 the Gaussian(R) 94 system (copyright 1995, Gaussian, Inc.),
 the Gaussian 92(TM) system (copyright 1992, Gaussian, Inc.),
 the Gaussian 90(TM) system (copyright 1990, Gaussian, Inc.),
 the Gaussian 88(TM) system (copyright 1988, Gaussian, Inc.),
 the Gaussian 86(TM) system (copyright 1986, Carnegie Mellon
 University), and the Gaussian 82(TM) system (copyright 1983,
 Carnegie Mellon University). Gaussian is a federally registered
 trademark of Gaussian, Inc.
  
 This software contains proprietary and confidential information,
 including trade secrets, belonging to Gaussian, Inc.
  
 This software is provided under written license and may be
 used, copied, transmitted, or stored only in accord with that
 written license.
  
 The following legend is applicable only to US Government
 contracts under FAR:
  
                    RESTRICTED RIGHTS LEGEND
  
 Use, reproduction and disclosure by the US Government is
 subject to restrictions as set forth in subparagraphs (a)
 and (c) of the Commercial Computer Software - Restricted
 Rights clause in FAR 52.227-19.
  
 Gaussian, Inc.
 340 Quinnipiac St., Bldg. 40, Wallingford CT 06492
  
  
 ---------------------------------------------------------------
 Warning -- This program may not be used in any manner that
 competes with the business of Gaussian, Inc. or will provide
 assistance to any competitor of Gaussian, Inc.  The licensee
 of this program is prohibited from giving any competitor of
 Gaussian, Inc. access to this program.  By using this program,
 the user acknowledges that Gaussian, Inc. is engaged in the
 business of creating and licensing software in the field of
 computational chemistry and represents and warrants to the
 licensee that it is not a competitor of Gaussian, Inc. and that
 it will not use this program in any manner prohibited above.
 ---------------------------------------------------------------
  

 Cite this work as:
 Gaussian 09, Revision E.01,
 M. J. Frisch, G. W. Trucks, H. B. Schlegel, G. E. Scuseria, 
 M. A. Robb, J. R. Cheeseman, G. Scalmani, V. Barone, B. Mennucci, 
 G. A. Petersson, H. Nakatsuji, M. Caricato, X. Li, H. P. Hratchian, 
 A. F. Izmaylov, J. Bloino, G. Zheng, J. L. Sonnenberg, M. Hada, 
 M. Ehara, K. Toyota, R. Fukuda, J. Hasegawa, M. Ishida, T. Nakajima, 
 Y. Honda, O. Kitao, H. Nakai, T. Vreven, J. A. Montgomery, Jr., 
 J. E. Peralta, F. Ogliaro, M. Bearpark, J. J. Heyd, E. Brothers, 
 K. N. Kudin, V. N. Staroverov, T. Keith, R. Kobayashi, J. Normand, 
 K. Raghavachari, A. Rendell, J. C. Burant, S. S. Iyengar, J. Tomasi, 
 M. Cossi, N. Rega, J. M. Millam, M. Klene, J. E. Knox, J. B. Cross, 
 V. Bakken, C. Adamo, J. Jaramillo, R. Gomperts, R. E. Stratmann, 
 O. Yazyev, A. J. Austin, R. Cammi, C. Pomelli, J. W. Ochterski, 
 R. L. Martin, K. Morokuma, V. G. Zakrzewski, G. A. Voth, 
 P. Salvador, J. J. Dannenberg, S. Dapprich, A. D. Daniels, 
 O. Farkas, J. B. Foresman, J. V. Ortiz, J. Cioslowski, 
 and D. J. Fox, Gaussian, Inc., Wallingford CT, 2013.
 
 ******************************************
 Gaussian 09:  ES64L-G09RevE.01 30-Nov-2015
                 5-Oct-2018 
 ******************************************
 %nproc=2
 Will use up to    2 processors via shared memory.
 ----------------
 # freq hf/sto-3g
 ----------------
 1/10=4,30=1,38=1/1,3;
 2/12=2,17=6,18=5,40=1/2;
 3/6=3,11=9,16=1,25=1,30=1,71=2,140=1/1,2,3;
 4//1;
 5/5=2,38=5,98=1/2;
 8/6=4,10=90,11=11/1;
 10/13=10,15=4/2;
 11/6=3,8=1,9=11,15=111,16=1/1,2,10;
 10/6=1/2;
 6/7=2,8=2,9=2,10=2,18=1,28=1/1;
 7/8=1,10=1,25=1/1,2,3,16;
 1/10=4,30=1/3;
 99//99;
 -------------
 ts-hf-sto.log
 -------------
 Symbolic Z-matrix:
 Charge =  0 Multiplicity = 1
 C                     0.19931  -1.40387   0.68849 
 C                    -0.24704  -0.30711   1.44609 
 C                    -0.24704   0.97345   0.9454 
 C                    -0.24704   0.97345  -0.9454 
 C                    -0.24704  -0.30711  -1.44609 
 C                     0.19931  -1.40387  -0.68849 
 H                     0.33413  -2.35171   1.1954 
 H                    -0.71406  -0.48732   2.40569 
 H                    -0.71406  -0.48732  -2.40569 
 H                     0.33413  -2.35171  -1.1954 
 O                     0.73077   1.36869   0. 
 H                    -0.7746    1.78947  -1.43906 
 H                    -0.7746    1.78947   1.43906 
 

 GradGradGradGradGradGradGradGradGradGradGradGradGradGradGradGradGradGrad
 Berny optimization.
 Initialization pass.
 Trust Radius=3.00D-01 FncErr=1.00D-07 GrdErr=1.00D-07
 Number of steps in this run=      2 maximum allowed number of steps=      2.
 GradGradGradGradGradGradGradGradGradGradGradGradGradGradGradGradGradGrad

                          Input orientation:                          
 ---------------------------------------------------------------------
 Center     Atomic      Atomic             Coordinates (Angstroms)
 Number     Number       Type             X           Y           Z
 ---------------------------------------------------------------------
      1          6           0        0.199310   -1.403870    0.688490
      2          6           0       -0.247040   -0.307110    1.446090
      3          6           0       -0.247040    0.973450    0.945400
      4          6           0       -0.247040    0.973450   -0.945400
      5          6           0       -0.247040   -0.307110   -1.446090
      6          6           0        0.199310   -1.403870   -0.688490
      7          1           0        0.334130   -2.351710    1.195400
      8          1           0       -0.714060   -0.487320    2.405690
      9          1           0       -0.714060   -0.487320   -2.405690
     10          1           0        0.334130   -2.351710   -1.195400
     11          8           0        0.730770    1.368690    0.000000
     12          1           0       -0.774600    1.789470   -1.439060
     13          1           0       -0.774600    1.789470    1.439060
 ---------------------------------------------------------------------
                    Distance matrix (angstroms):
                    1          2          3          4          5
     1  C    0.000000
     2  C    1.405727   0.000000
     3  C    2.432464   1.374963   0.000000
     4  C    2.918985   2.712758   1.890800   0.000000
     5  C    2.441013   2.892180   2.712758   1.374963   0.000000
     6  C    1.376980   2.441013   2.918985   2.432464   1.405727
     7  H    1.083298   2.140325   3.384811   3.997183   3.390519
     8  H    2.150136   1.082319   2.117641   3.685344   3.884172
     9  H    3.353842   3.884172   3.685344   2.117641   1.082319
    10  H    2.113201   3.390519   3.997183   3.384811   2.140325
    11  O    2.905780   2.419834   1.416371   1.416371   2.419834
    12  H    3.958837   3.605282   2.574851   1.089912   2.161947
    13  H    3.421882   2.161947   1.089912   2.574851   3.605282
                    6          7          8          9         10
     6  C    0.000000
     7  H    2.113201   0.000000
     8  H    3.353842   2.457530   0.000000
     9  H    2.150136   4.188377   4.811380   0.000000
    10  H    1.083298   2.390800   4.188377   2.457530   0.000000
    11  O    2.905780   3.927809   3.364469   3.364469   3.927809
    12  H    3.421882   5.031802   4.468729   2.474229   4.293952
    13  H    3.958837   4.293952   2.474229   4.468729   5.031802
                   11         12         13
    11  O    0.000000
    12  H    2.124638   0.000000
    13  H    2.124638   2.878120   0.000000
 Stoichiometry    C6H6O
 Framework group  CS[SG(O),X(C6H6)]
 Deg. of freedom    17
 Full point group                 CS      NOp   2
 Largest Abelian subgroup         CS      NOp   2
 Largest concise Abelian subgroup CS      NOp   2
                         Standard orientation:                         
 ---------------------------------------------------------------------
 Center     Atomic      Atomic             Coordinates (Angstroms)
 Number     Number       Type             X           Y           Z
 ---------------------------------------------------------------------
      1          6           0        0.199313   -1.403871    0.688490
      2          6           0       -0.247037   -0.307111    1.446090
      3          6           0       -0.247037    0.973449    0.945400
      4          6           0       -0.247037    0.973449   -0.945400
      5          6           0       -0.247037   -0.307111   -1.446090
      6          6           0        0.199313   -1.403871   -0.688490
      7          1           0        0.334133   -2.351711    1.195400
      8          1           0       -0.714057   -0.487321    2.405690
      9          1           0       -0.714057   -0.487321   -2.405690
     10          1           0        0.334133   -2.351711   -1.195400
     11          8           0        0.730773    1.368689    0.000000
     12          1           0       -0.774597    1.789469   -1.439060
     13          1           0       -0.774597    1.789469    1.439060
 ---------------------------------------------------------------------
 Rotational constants (GHZ):      4.3364616      3.7397799      2.2758193
 Standard basis: STO-3G (5D, 7F)
 There are    22 symmetry adapted cartesian basis functions of A'  symmetry.
 There are    19 symmetry adapted cartesian basis functions of A"  symmetry.
 There are    22 symmetry adapted basis functions of A'  symmetry.
 There are    19 symmetry adapted basis functions of A"  symmetry.
    41 basis functions,   123 primitive gaussians,    41 cartesian basis functions
    25 alpha electrons       25 beta electrons
       nuclear repulsion energy       279.6943938753 Hartrees.
 NAtoms=   13 NActive=   13 NUniq=    7 SFac= 3.45D+00 NAtFMM=   60 NAOKFM=F Big=F
 Integral buffers will be    131072 words long.
 Raffenetti 1 integral format.
 Two-electron integral symmetry is turned on.
 One-electron integrals computed using PRISM.
 NBasis=    41 RedAO= T EigKep=  1.27D-01  NBF=    22    19
 NBsUse=    41 1.00D-06 EigRej= -1.00D+00 NBFU=    22    19
 ExpMin= 1.69D-01 ExpMax= 1.31D+02 ExpMxC= 1.31D+02 IAcc=1 IRadAn=         1 AccDes= 0.00D+00
 Harris functional with IExCor=  205 and IRadAn=       1 diagonalized for initial guess.
 HarFok:  IExCor=  205 AccDes= 0.00D+00 IRadAn=         1 IDoV= 1 UseB2=F ITyADJ=14
 ICtDFT=  3500011 ScaDFX=  1.000000  1.000000  1.000000  1.000000
 FoFCou: FMM=F IPFlag=           0 FMFlag=      100000 FMFlg1=           0
         NFxFlg=           0 DoJE=T BraDBF=F KetDBF=T FulRan=T
         wScrn=  0.000000 ICntrl=     500 IOpCl=  0 I1Cent=   200000004 NGrid=           0
         NMat0=    1 NMatS0=      1 NMatT0=    0 NMatD0=    1 NMtDS0=    0 NMtDT0=    0
 Petite list used in FoFCou.
 Initial guess orbital symmetries:
       Occupied  (A') (A") (A') (A") (A') (A") (A') (A') (A') (A")
                 (A') (A") (A') (A') (A") (A') (A") (A') (A") (A')
                 (A") (A') (A") (A') (A')
       Virtual   (A') (A") (A") (A') (A") (A') (A') (A") (A") (A')
                 (A") (A") (A') (A') (A") (A")
 The electronic state of the initial guess is 1-A'.
 Keep R1 ints in memory in symmetry-blocked form, NReq=1223262.
 Requested convergence on RMS density matrix=1.00D-08 within 128 cycles.
 Requested convergence on MAX density matrix=1.00D-06.
 Requested convergence on             energy=1.00D-06.
 No special actions if energy rises.
 SCF Done:  E(RHF) =  -301.643573532     A.U. after   13 cycles
            NFock= 13  Conv=0.26D-08     -V/T= 2.0085
 Range of M.O.s used for correlation:     1    41
 NBasis=    41 NAE=    25 NBE=    25 NFC=     0 NFV=     0
 NROrb=     41 NOA=    25 NOB=    25 NVA=    16 NVB=    16
          Differentiating once with respect to electric field.
                with respect to dipole field.
          Electric field/nuclear overlap derivatives assumed to be zero.
 Keep R1 ints in memory in symmetry-blocked form, NReq=1209220.
          There are     3 degrees of freedom in the 1st order CPHF.  IDoFFX=0 NUNeed=     3.
      3 vectors produced by pass  0 Test12= 1.33D-14 3.33D-08 XBig12= 1.89D+01 2.81D+00.
 AX will form     3 AO Fock derivatives at one time.
      3 vectors produced by pass  1 Test12= 1.33D-14 3.33D-08 XBig12= 1.36D+00 3.28D-01.
      3 vectors produced by pass  2 Test12= 1.33D-14 3.33D-08 XBig12= 2.96D-02 5.95D-02.
      3 vectors produced by pass  3 Test12= 1.33D-14 3.33D-08 XBig12= 2.82D-03 1.89D-02.
      3 vectors produced by pass  4 Test12= 1.33D-14 3.33D-08 XBig12= 1.71D-04 4.31D-03.
      3 vectors produced by pass  5 Test12= 1.33D-14 3.33D-08 XBig12= 4.68D-06 9.40D-04.
      3 vectors produced by pass  6 Test12= 1.33D-14 3.33D-08 XBig12= 8.04D-08 8.92D-05.
      3 vectors produced by pass  7 Test12= 1.33D-14 3.33D-08 XBig12= 2.85D-09 1.59D-05.
      3 vectors produced by pass  8 Test12= 1.33D-14 3.33D-08 XBig12= 2.66D-10 3.68D-06.
      2 vectors produced by pass  9 Test12= 1.33D-14 3.33D-08 XBig12= 8.50D-12 7.93D-07.
      1 vectors produced by pass 10 Test12= 1.33D-14 3.33D-08 XBig12= 1.52D-13 1.03D-07.
 InvSVY:  IOpt=1 It=  1 EMax= 8.88D-16
 Solved reduced A of dimension    30 with     3 vectors.
 End of Minotr F.D. properties file   721 does not exist.
 End of Minotr F.D. properties file   722 does not exist.
 End of Minotr F.D. properties file   788 does not exist.
 Symmetrizing basis deriv contribution to polar:
 IMax=3 JMax=2 DiffMx= 0.00D+00
 G2DrvN: will do    14 centers at a time, making    1 passes.
 PxScal for G2LodP:  IOpCl= 0 ISclPx=1 IMOff=     1 NMtTot=     4 NTT=     861 ScalPx= 1.59D+00
 Calling FoFCou, ICntrl=  3107 FMM=F I1Cent=   0 AccDes= 0.00D+00.
 End of G2Drv F.D. properties file   721 does not exist.
 End of G2Drv F.D. properties file   722 does not exist.
 End of G2Drv F.D. properties file   788 does not exist.
          IDoAtm=1111111111111
          Differentiating once with respect to electric field.
                with respect to dipole field.
          Differentiating once with respect to nuclear coordinates.
 Keep R1 ints in memory in symmetry-blocked form, NReq=1209520.
          There are    24 degrees of freedom in the 1st order CPHF.  IDoFFX=4 NUNeed=    24.
 Will reuse    3 saved solutions.
     21 vectors produced by pass  0 Test12= 1.67D-15 4.17D-09 XBig12= 3.81D-02 8.14D-02.
 AX will form    21 AO Fock derivatives at one time.
     21 vectors produced by pass  1 Test12= 1.67D-15 4.17D-09 XBig12= 8.54D-04 9.64D-03.
     21 vectors produced by pass  2 Test12= 1.67D-15 4.17D-09 XBig12= 3.39D-05 1.34D-03.
     21 vectors produced by pass  3 Test12= 1.67D-15 4.17D-09 XBig12= 2.39D-07 7.24D-05.
     21 vectors produced by pass  4 Test12= 1.67D-15 4.17D-09 XBig12= 1.77D-09 7.16D-06.
     21 vectors produced by pass  5 Test12= 1.67D-15 4.17D-09 XBig12= 8.15D-12 4.83D-07.
     12 vectors produced by pass  6 Test12= 1.67D-15 4.17D-09 XBig12= 3.09D-14 2.64D-08.
 InvSVY:  IOpt=1 It=  1 EMax= 2.78D-16
 Solved reduced A of dimension   138 with    24 vectors.
 Isotropic polarizability for W=    0.000000       36.67 Bohr**3.
 End of Minotr F.D. properties file   721 does not exist.
 End of Minotr F.D. properties file   722 does not exist.
 End of Minotr F.D. properties file   788 does not exist.

 **********************************************************************

            Population analysis using the SCF density.

 **********************************************************************

 Orbital symmetries:
       Occupied  (A') (A") (A') (A') (A") (A') (A") (A') (A') (A")
                 (A') (A") (A') (A') (A") (A") (A') (A') (A") (A')
                 (A") (A') (A') (A") (A')
       Virtual   (A") (A') (A") (A') (A") (A') (A') (A") (A") (A')
                 (A") (A") (A') (A') (A") (A")
 The electronic state is 1-A'.
 Alpha  occ. eigenvalues --  -20.31457 -11.09341 -11.09289 -11.03101 -11.03075
 Alpha  occ. eigenvalues --  -11.03054 -11.03050  -1.35153  -1.05752  -0.98970
 Alpha  occ. eigenvalues --   -0.89788  -0.81399  -0.72974  -0.67251  -0.65263
 Alpha  occ. eigenvalues --   -0.58125  -0.57787  -0.54729  -0.51245  -0.47821
 Alpha  occ. eigenvalues --   -0.45656  -0.42064  -0.37334  -0.26480  -0.25923
 Alpha virt. eigenvalues --    0.25420   0.25495   0.44943   0.56477   0.59948
 Alpha virt. eigenvalues --    0.60079   0.65977   0.66137   0.74200   0.75077
 Alpha virt. eigenvalues --    0.80074   0.84509   0.90904   0.93625   1.04983
 Alpha virt. eigenvalues --    1.07604
          Condensed to atoms (all electrons):
               1          2          3          4          5          6
     1  C    4.775555   0.486847  -0.031469  -0.006204  -0.029535   0.522758
     2  C    0.486847   4.804385   0.516726  -0.008431  -0.009234  -0.029535
     3  C   -0.031469   0.516726   4.847842   0.046943  -0.008431  -0.006204
     4  C   -0.006204  -0.008431   0.046943   4.847842   0.516726  -0.031469
     5  C   -0.029535  -0.009234  -0.008431   0.516726   4.804385   0.486847
     6  C    0.522758  -0.029535  -0.006204  -0.031469   0.486847   4.775555
     7  H    0.394733  -0.026627   0.001472   0.000009   0.001399  -0.027362
     8  H   -0.024319   0.393001  -0.025555   0.000350   0.000012   0.001125
     9  H    0.001125   0.000012   0.000350  -0.025555   0.393001  -0.024319
    10  H   -0.027362   0.001399   0.000009   0.001472  -0.026627   0.394733
    11  O   -0.000768  -0.020928   0.238300   0.238300  -0.020928  -0.000768
    12  H    0.000024  -0.000009  -0.001657   0.382629  -0.027624   0.001318
    13  H    0.001318  -0.027624   0.382629  -0.001657  -0.000009   0.000024
               7          8          9         10         11         12
     1  C    0.394733  -0.024319   0.001125  -0.027362  -0.000768   0.000024
     2  C   -0.026627   0.393001   0.000012   0.001399  -0.020928  -0.000009
     3  C    0.001472  -0.025555   0.000350   0.000009   0.238300  -0.001657
     4  C    0.000009   0.000350  -0.025555   0.001472   0.238300   0.382629
     5  C    0.001399   0.000012   0.393001  -0.026627  -0.020928  -0.027624
     6  C   -0.027362   0.001125  -0.024319   0.394733  -0.000768   0.001318
     7  H    0.601479  -0.003585  -0.000038  -0.005004  -0.000006   0.000001
     8  H   -0.003585   0.591759   0.000003  -0.000038   0.000487   0.000001
     9  H   -0.000038   0.000003   0.591759  -0.003585   0.000487  -0.003044
    10  H   -0.005004  -0.000038  -0.003585   0.601479  -0.000006  -0.000035
    11  O   -0.000006   0.000487   0.000487  -0.000006   7.806250  -0.017842
    12  H    0.000001   0.000001  -0.003044  -0.000035  -0.017842   0.593798
    13  H   -0.000035  -0.003044   0.000001   0.000001  -0.017842  -0.000200
              13
     1  C    0.001318
     2  C   -0.027624
     3  C    0.382629
     4  C   -0.001657
     5  C   -0.000009
     6  C    0.000024
     7  H   -0.000035
     8  H   -0.003044
     9  H    0.000001
    10  H    0.000001
    11  O   -0.017842
    12  H   -0.000200
    13  H    0.593798
 Mulliken charges:
               1
     1  C   -0.062702
     2  C   -0.079981
     3  C    0.039045
     4  C    0.039045
     5  C   -0.079981
     6  C   -0.062702
     7  H    0.063563
     8  H    0.069804
     9  H    0.069804
    10  H    0.063563
    11  O   -0.204739
    12  H    0.072640
    13  H    0.072640
 Sum of Mulliken charges =   0.00000
 Mulliken charges with hydrogens summed into heavy atoms:
               1
     1  C    0.000862
     2  C   -0.010178
     3  C    0.111686
     4  C    0.111686
     5  C   -0.010178
     6  C    0.000862
    11  O   -0.204739
 APT charges:
               1
     1  C   -0.051745
     2  C   -0.128745
     3  C    0.124398
     4  C    0.124398
     5  C   -0.128745
     6  C   -0.051745
     7  H    0.057927
     8  H    0.072012
     9  H    0.072012
    10  H    0.057927
    11  O   -0.245919
    12  H    0.049113
    13  H    0.049113
 Sum of APT charges =   0.00000
 APT charges with hydrogens summed into heavy atoms:
               1
     1  C    0.006182
     2  C   -0.056734
     3  C    0.173511
     4  C    0.173511
     5  C   -0.056734
     6  C    0.006182
    11  O   -0.245919
 Electronic spatial extent (au):  <R**2>=            575.4488
 Charge=              0.0000 electrons
 Dipole moment (field-independent basis, Debye):
    X=             -1.6057    Y=             -0.2566    Z=              0.0000  Tot=              1.6261
 Quadrupole moment (field-independent basis, Debye-Ang):
   XX=            -39.9088   YY=            -36.7219   ZZ=            -35.3948
   XY=             -2.4650   XZ=              0.0000   YZ=              0.0000
 Traceless Quadrupole moment (field-independent basis, Debye-Ang):
   XX=             -2.5670   YY=              0.6199   ZZ=              1.9471
   XY=             -2.4650   XZ=              0.0000   YZ=              0.0000
 Octapole moment (field-independent basis, Debye-Ang**2):
  XXX=              3.2047  YYY=              3.6626  ZZZ=              0.0000  XYY=             -1.8141
  XXY=              2.3328  XXZ=              0.0000  XZZ=             -2.3246  YZZ=              2.5301
  YYZ=              0.0000  XYZ=              0.0000
 Hexadecapole moment (field-independent basis, Debye-Ang**3):
 XXXX=            -66.5547 YYYY=           -322.4797 ZZZZ=           -298.4661 XXXY=              7.0230
 XXXZ=              0.0000 YYYX=             -1.9005 YYYZ=              0.0000 ZZZX=              0.0000
 ZZZY=              0.0000 XXYY=            -68.7164 XXZZ=            -61.2636 YYZZ=            -99.6539
 XXYZ=              0.0000 YYXZ=              0.0000 ZZXY=              1.5852
 N-N= 2.796943938753D+02 E-N=-1.265254848976D+03  KE= 2.991005069444D+02
 Symmetry A'   KE= 1.857705240852D+02
 Symmetry A"   KE= 1.133299828593D+02
  Exact polarizability:  13.319  -6.036  47.392   0.000   0.000  49.313
 Approx polarizability:  13.142  -5.446  48.329   0.000   0.000  50.395
 Calling FoFJK, ICntrl=    100127 FMM=F ISym2X=1 I1Cent= 0 IOpClX= 0 NMat=1 NMatS=1 NMatT=0.
 Full mass-weighted force constant matrix:
 Low frequencies --- -877.0814   -3.8633   -2.6271   -1.0909    0.0006    0.0011
 Low frequencies ---    0.0086  320.8075  389.2289
 ******    1 imaginary frequencies (negative Signs) ****** 
 Diagonal vibrational polarizability:
        1.0672740       1.2557806       0.9550687
 Diagonal vibrational hyperpolarizability:
       -8.8758385     -13.4435659       0.0000000
 Harmonic frequencies (cm**-1), IR intensities (KM/Mole), Raman scattering
 activities (A**4/AMU), depolarization ratios for plane and unpolarized
 incident light, reduced masses (AMU), force constants (mDyne/A),
 and normal coordinates:
                      1                      2                      3
                     A'                     A'                     A"
 Frequencies --   -877.0814               320.8075               389.2289
 Red. masses --      5.9464                 5.2485                 3.2936
 Frc consts  --      2.6951                 0.3183                 0.2940
 IR Inten    --      0.1136                 1.8509                 0.6634
 Raman Activ --      9.4663                 2.5559                 1.3338
 Depolar (P) --      0.6636                 0.6190                 0.7500
 Depolar (U) --      0.7978                 0.7646                 0.8571
  Atom  AN      X      Y      Z        X      Y      Z        X      Y      Z
     1   6     0.03  -0.06  -0.10    -0.15  -0.17   0.00     0.20   0.04   0.00
     2   6    -0.05   0.11   0.04     0.18  -0.04  -0.02     0.08   0.00   0.01
     3   6     0.16  -0.02   0.38     0.06   0.00   0.03    -0.19  -0.04  -0.08
     4   6     0.16  -0.02  -0.38     0.06   0.00  -0.03     0.19   0.04  -0.08
     5   6    -0.05   0.11  -0.04     0.18  -0.04   0.02    -0.08   0.00   0.01
     6   6     0.03  -0.06   0.10    -0.15  -0.17   0.00    -0.20  -0.04   0.00
     7   1     0.18   0.02   0.00    -0.41  -0.20   0.02     0.39   0.08   0.03
     8   1    -0.37  -0.08  -0.16     0.27   0.03   0.04     0.14  -0.07   0.03
     9   1    -0.37  -0.08   0.16     0.27   0.03  -0.04    -0.14   0.07   0.03
    10   1     0.18   0.02   0.00    -0.41  -0.20  -0.02    -0.39  -0.08   0.03
    11   8    -0.19  -0.05   0.00    -0.12   0.37   0.00     0.00   0.00   0.12
    12   1     0.09   0.00  -0.27    -0.05  -0.16  -0.17     0.40   0.08  -0.23
    13   1     0.09   0.00   0.27    -0.05  -0.16   0.17    -0.40  -0.08  -0.23
                      4                      5                      6
                     A'                     A"                     A"
 Frequencies --    517.1269               537.4912               762.9365
 Red. masses --      3.6131                 6.0413                 3.5938
 Frc consts  --      0.5693                 1.0283                 1.2325
 IR Inten    --      1.2128                 2.2042                 1.5278
 Raman Activ --      4.7740                 4.7380                 0.9918
 Depolar (P) --      0.6983                 0.7500                 0.7500
 Depolar (U) --      0.8224                 0.8571                 0.8571
  Atom  AN      X      Y      Z        X      Y      Z        X      Y      Z
     1   6    -0.08   0.09   0.02     0.04   0.20  -0.19     0.23   0.02   0.07
     2   6     0.17   0.03   0.20    -0.03   0.16  -0.10    -0.18  -0.05  -0.06
     3   6    -0.07  -0.01   0.06    -0.03   0.25   0.19     0.12  -0.03   0.05
     4   6    -0.07  -0.01  -0.06     0.03  -0.25   0.19    -0.12   0.03   0.05
     5   6     0.17   0.03  -0.20     0.03  -0.16  -0.10     0.18   0.05  -0.06
     6   6    -0.08   0.09  -0.02    -0.04  -0.20  -0.19    -0.23  -0.02   0.07
     7   1    -0.13   0.03  -0.08     0.09   0.30  -0.02     0.36   0.05   0.09
     8   1     0.48   0.02   0.35     0.08  -0.07  -0.10    -0.41  -0.07  -0.18
     9   1     0.48   0.02  -0.35    -0.08   0.07  -0.10     0.41   0.07  -0.18
    10   1    -0.13   0.03   0.08    -0.09  -0.30  -0.02    -0.36  -0.05   0.09
    11   8    -0.09  -0.17   0.00     0.00   0.00   0.14     0.00   0.00  -0.08
    12   1     0.05   0.05  -0.07    -0.08  -0.28   0.26    -0.17   0.03   0.08
    13   1     0.05   0.05   0.07     0.08   0.28   0.26     0.17  -0.03   0.08
                      7                      8                      9
                     A'                     A'                     A"
 Frequencies --    822.8086               841.1182               954.1008
 Red. masses --      2.0149                 1.7679                 1.2489
 Frc consts  --      0.8037                 0.7369                 0.6698
 IR Inten    --     10.1882                19.9360                10.0748
 Raman Activ --      3.3908                 6.2612                 5.1518
 Depolar (P) --      0.7011                 0.4380                 0.7500
 Depolar (U) --      0.8243                 0.6092                 0.8571
  Atom  AN      X      Y      Z        X      Y      Z        X      Y      Z
     1   6     0.00   0.08   0.01    -0.04   0.03   0.01    -0.01   0.00   0.02
     2   6    -0.01  -0.02   0.14    -0.10  -0.06   0.07    -0.07  -0.02  -0.03
     3   6     0.06  -0.09  -0.01     0.04  -0.05   0.00    -0.05  -0.02  -0.04
     4   6     0.06  -0.09   0.01     0.04  -0.05   0.00     0.05   0.02  -0.04
     5   6    -0.01  -0.02  -0.14    -0.10  -0.06  -0.07     0.07   0.02  -0.03
     6   6     0.00   0.08  -0.01    -0.04   0.03  -0.01     0.01   0.00   0.02
     7   1    -0.20  -0.03  -0.16     0.49   0.10  -0.02     0.18   0.05   0.06
     8   1    -0.40  -0.07  -0.06     0.25   0.04   0.26     0.45   0.09   0.24
     9   1    -0.40  -0.07   0.06     0.25   0.04  -0.26    -0.45  -0.09   0.24
    10   1    -0.20  -0.03   0.16     0.49   0.10   0.02    -0.18  -0.05   0.06
    11   8     0.03   0.08   0.00     0.03   0.11   0.00     0.00   0.00   0.01
    12   1    -0.31  -0.14   0.33     0.24  -0.03  -0.18    -0.32  -0.03   0.27
    13   1    -0.31  -0.14  -0.33     0.24  -0.03   0.18     0.32   0.03   0.27
                     10                     11                     12
                     A'                     A"                     A'
 Frequencies --    975.2138              1026.8469              1116.8118
 Red. masses --      1.3459                 3.1772                 1.4137
 Frc consts  --      0.7542                 1.9738                 1.0389
 IR Inten    --      5.2453                 0.0009                 4.5205
 Raman Activ --      4.0059                 0.0832                 0.3667
 Depolar (P) --      0.7359                 0.7500                 0.3042
 Depolar (U) --      0.8479                 0.8571                 0.4665
  Atom  AN      X      Y      Z        X      Y      Z        X      Y      Z
     1   6    -0.07  -0.07  -0.01    -0.04   0.15  -0.11     0.01   0.04  -0.01
     2   6     0.04   0.06   0.01    -0.11  -0.04   0.18    -0.06  -0.03  -0.07
     3   6     0.00   0.01  -0.01     0.04  -0.07   0.02     0.06   0.00   0.06
     4   6     0.00   0.01   0.01    -0.04   0.07   0.02     0.06   0.00  -0.06
     5   6     0.04   0.06  -0.01     0.11   0.04   0.18    -0.06  -0.03   0.07
     6   6    -0.07  -0.07   0.01     0.04  -0.15  -0.11     0.01   0.04   0.01
     7   1     0.48   0.07   0.11     0.16   0.19  -0.10    -0.18   0.02  -0.01
     8   1    -0.02   0.13  -0.01     0.18  -0.17   0.30     0.46  -0.03   0.17
     9   1    -0.02   0.13   0.01    -0.18   0.17   0.30     0.46  -0.03  -0.17
    10   1     0.48   0.07  -0.11    -0.16  -0.19  -0.10    -0.18   0.02   0.01
    11   8     0.01  -0.02   0.00     0.00   0.00  -0.11    -0.01  -0.01   0.00
    12   1    -0.32   0.00   0.34     0.19  -0.02  -0.38    -0.35  -0.06   0.28
    13   1    -0.32   0.00  -0.34    -0.19   0.02  -0.38    -0.35  -0.06  -0.28
                     13                     14                     15
                     A"                     A'                     A"
 Frequencies --   1126.5241              1141.6132              1182.6899
 Red. masses --      2.0365                 4.2453                 2.0490
 Frc consts  --      1.5227                 3.2598                 1.6886
 IR Inten    --      4.4178                 0.5900                 1.7658
 Raman Activ --      0.1547                33.3732                 0.7001
 Depolar (P) --      0.7500                 0.0802                 0.7500
 Depolar (U) --      0.8571                 0.1486                 0.8571
  Atom  AN      X      Y      Z        X      Y      Z        X      Y      Z
     1   6     0.01   0.13  -0.03    -0.12   0.18  -0.13    -0.01   0.06   0.03
     2   6     0.04   0.03   0.05     0.10   0.01  -0.18    -0.01   0.01  -0.11
     3   6     0.00  -0.10  -0.10     0.06  -0.16  -0.07     0.13  -0.07   0.00
     4   6     0.00   0.10  -0.10     0.06  -0.16   0.07    -0.13   0.07   0.00
     5   6    -0.04  -0.03   0.05     0.10   0.01   0.18     0.01  -0.01  -0.11
     6   6    -0.01  -0.13  -0.03    -0.12   0.18   0.13     0.01  -0.06   0.03
     7   1    -0.22   0.15   0.08     0.21   0.24  -0.16    -0.19   0.15   0.24
     8   1    -0.31   0.00  -0.14    -0.03  -0.04  -0.28     0.31   0.17   0.05
     9   1     0.31   0.00  -0.14    -0.03  -0.04   0.28    -0.31  -0.17   0.05
    10   1     0.22  -0.15   0.08     0.21   0.24   0.16     0.19  -0.15   0.24
    11   8     0.00   0.00   0.08    -0.09  -0.04   0.00     0.00   0.00   0.11
    12   1    -0.42   0.07   0.28     0.06  -0.33  -0.17     0.33   0.27  -0.16
    13   1     0.42  -0.07   0.28     0.06  -0.33   0.17    -0.33  -0.27  -0.16
                     16                     17                     18
                     A"                     A'                     A"
 Frequencies --   1192.3271              1237.7108              1293.5846
 Red. masses --      1.3233                 1.7864                 1.6250
 Frc consts  --      1.1084                 1.6123                 1.6021
 IR Inten    --      0.3222                 1.7523                 2.7206
 Raman Activ --      0.0390                 2.4616                 2.8200
 Depolar (P) --      0.7500                 0.0864                 0.7500
 Depolar (U) --      0.8571                 0.1591                 0.8571
  Atom  AN      X      Y      Z        X      Y      Z        X      Y      Z
     1   6    -0.10  -0.02  -0.01     0.05  -0.03   0.05     0.05  -0.04  -0.04
     2   6     0.03   0.02  -0.01    -0.04   0.07   0.00    -0.04   0.04   0.05
     3   6     0.04  -0.01  -0.01     0.06  -0.07  -0.07     0.06   0.02  -0.05
     4   6    -0.04   0.01  -0.01     0.06  -0.07   0.07    -0.06  -0.02  -0.05
     5   6    -0.03  -0.02  -0.01    -0.04   0.07   0.00     0.04  -0.04   0.05
     6   6     0.10   0.02  -0.01     0.05  -0.03  -0.05    -0.05   0.04  -0.04
     7   1     0.64   0.14   0.09    -0.14  -0.03   0.11     0.02  -0.23  -0.37
     8   1    -0.18   0.09  -0.09     0.01   0.63   0.13    -0.03   0.47   0.14
     9   1     0.18  -0.09  -0.09     0.01   0.63  -0.13     0.03  -0.47   0.14
    10   1    -0.64  -0.14   0.09    -0.14  -0.03  -0.11    -0.02   0.23  -0.37
    11   8     0.00   0.00   0.04    -0.11  -0.03   0.00     0.00   0.00   0.12
    12   1     0.01   0.05   0.00     0.13  -0.07   0.03    -0.09  -0.11  -0.16
    13   1    -0.01  -0.05   0.00     0.13  -0.07  -0.03     0.09   0.11  -0.16
                     19                     20                     21
                     A'                     A"                     A'
 Frequencies --   1386.8613              1404.9085              1405.5063
 Red. masses --      1.1304                 1.2689                 1.4196
 Frc consts  --      1.2810                 1.4756                 1.6523
 IR Inten    --      0.3558                 0.7669                 2.6769
 Raman Activ --      9.6277                 6.7310                 8.7426
 Depolar (P) --      0.6967                 0.7500                 0.7268
 Depolar (U) --      0.8213                 0.8571                 0.8418
  Atom  AN      X      Y      Z        X      Y      Z        X      Y      Z
     1   6    -0.01   0.02   0.07     0.00   0.02  -0.02     0.01   0.00   0.00
     2   6     0.01   0.00   0.00     0.00   0.03   0.01     0.00   0.03  -0.01
     3   6     0.01  -0.02   0.01    -0.04  -0.03   0.05    -0.06  -0.02   0.05
     4   6     0.01  -0.02  -0.01     0.04   0.03   0.05    -0.06  -0.02  -0.05
     5   6     0.01   0.00   0.00     0.00  -0.03   0.01     0.00   0.03   0.01
     6   6    -0.01   0.02  -0.07     0.00  -0.02  -0.02     0.01   0.00   0.00
     7   1    -0.07   0.29   0.61     0.00  -0.02  -0.11    -0.03  -0.03  -0.03
     8   1    -0.03  -0.15  -0.05    -0.09   0.41   0.04     0.00   0.28   0.04
     9   1    -0.03  -0.15   0.05     0.09  -0.41   0.04     0.00   0.28  -0.04
    10   1    -0.07   0.29  -0.61     0.00   0.02  -0.11    -0.03  -0.03   0.03
    11   8     0.00   0.00   0.00     0.00   0.00  -0.09     0.13   0.00   0.00
    12   1    -0.03  -0.08  -0.06     0.24   0.35   0.35    -0.31  -0.39  -0.39
    13   1    -0.03  -0.08   0.06    -0.24  -0.35   0.35    -0.31  -0.39   0.39
                     22                     23                     24
                     A'                     A"                     A'
 Frequencies --   1559.8430              1576.9181              1690.6056
 Red. masses --      3.9108                 1.3479                 1.8238
 Frc consts  --      5.6064                 1.9748                 3.0712
 IR Inten    --      6.7183                 2.7278                 4.4084
 Raman Activ --     16.6197                 1.0252                 0.9519
 Depolar (P) --      0.3352                 0.7500                 0.6532
 Depolar (U) --      0.5021                 0.8571                 0.7903
  Atom  AN      X      Y      Z        X      Y      Z        X      Y      Z
     1   6     0.04  -0.07  -0.19     0.01  -0.02  -0.04    -0.01   0.04  -0.05
     2   6    -0.05   0.20   0.03     0.02  -0.05  -0.02     0.04  -0.10  -0.04
     3   6    -0.09  -0.16  -0.02    -0.05  -0.05   0.07    -0.08  -0.04   0.10
     4   6    -0.09  -0.16   0.02     0.05   0.05   0.07    -0.08  -0.04  -0.10
     5   6    -0.05   0.20  -0.03    -0.02   0.05  -0.02     0.04  -0.10   0.04
     6   6     0.04  -0.07   0.19    -0.01   0.02  -0.04    -0.01   0.04   0.05
     7   1    -0.21   0.09   0.17    -0.08   0.17   0.33    -0.05   0.13   0.11
     8   1     0.31  -0.31   0.10    -0.09   0.41   0.01    -0.11   0.47  -0.01
     9   1     0.31  -0.31  -0.10     0.09  -0.41   0.01    -0.11   0.47   0.01
    10   1    -0.21   0.09  -0.17     0.08  -0.17   0.33    -0.05   0.13  -0.11
    11   8     0.11   0.07   0.00     0.00   0.00  -0.03     0.06   0.04   0.00
    12   1     0.21   0.11   0.19    -0.16  -0.28  -0.26     0.16   0.33   0.25
    13   1     0.21   0.11  -0.19     0.16   0.28  -0.26     0.16   0.33  -0.25
                     25                     26                     27
                     A"                     A"                     A'
 Frequencies --   1740.8505              1880.7558              1881.0943
 Red. masses --      2.1290                 5.9564                 4.1548
 Frc consts  --      3.8015                12.4135                 8.6620
 IR Inten    --      1.3355                 0.0495                10.3707
 Raman Activ --      1.7695                27.2737                11.8269
 Depolar (P) --      0.7500                 0.7500                 0.7310
 Depolar (U) --      0.8571                 0.8571                 0.8446
  Atom  AN      X      Y      Z        X      Y      Z        X      Y      Z
     1   6     0.04  -0.10  -0.10     0.05  -0.18  -0.09    -0.03   0.03   0.28
     2   6    -0.03  -0.03   0.09    -0.06   0.36   0.02     0.02   0.12  -0.10
     3   6     0.04   0.10  -0.08    -0.02  -0.20   0.08    -0.06  -0.14   0.10
     4   6    -0.04  -0.10  -0.08     0.02   0.20   0.08    -0.06  -0.14  -0.10
     5   6     0.03   0.03   0.09     0.06  -0.36   0.02     0.02   0.12   0.10
     6   6    -0.04   0.10  -0.10    -0.05   0.18  -0.09    -0.03   0.03  -0.28
     7   1    -0.10   0.20   0.53    -0.05  -0.04   0.25     0.15  -0.29  -0.30
     8   1    -0.04  -0.01   0.11     0.15  -0.39  -0.02     0.10  -0.20  -0.15
     9   1     0.04   0.01   0.11    -0.15   0.39  -0.02     0.10  -0.20   0.15
    10   1     0.10  -0.20   0.53     0.05   0.04   0.25     0.15  -0.29   0.30
    11   8     0.00   0.00   0.03     0.00   0.00  -0.02     0.05   0.04   0.00
    12   1     0.15   0.18   0.22    -0.11   0.08  -0.11     0.18   0.16   0.19
    13   1    -0.15  -0.18   0.22     0.11  -0.08  -0.11     0.18   0.16  -0.19
                     28                     29                     30
                     A"                     A'                     A"
 Frequencies --   3666.9542              3677.8113              3705.0259
 Red. masses --      1.0901                 1.0932                 1.0911
 Frc consts  --      8.6361                 8.7120                 8.8250
 IR Inten    --      0.4021                 8.0743                 0.0377
 Raman Activ --     27.1886                67.1201                50.8838
 Depolar (P) --      0.7500                 0.3331                 0.7500
 Depolar (U) --      0.8571                 0.4997                 0.8571
  Atom  AN      X      Y      Z        X      Y      Z        X      Y      Z
     1   6     0.00  -0.01   0.00     0.00   0.00   0.00     0.01  -0.05   0.02
     2   6     0.01   0.00  -0.01    -0.01   0.00   0.01     0.01   0.01  -0.02
     3   6    -0.03   0.05   0.02     0.03  -0.05  -0.03     0.01  -0.01  -0.01
     4   6     0.03  -0.05   0.02     0.03  -0.05   0.03    -0.01   0.01  -0.01
     5   6    -0.01   0.00  -0.01    -0.01   0.00  -0.01    -0.01  -0.01  -0.02
     6   6     0.00   0.01   0.00     0.00   0.00   0.00    -0.01   0.05   0.02
     7   1    -0.01   0.10  -0.05     0.00  -0.01   0.00    -0.08   0.55  -0.29
     8   1    -0.08  -0.03   0.17     0.07   0.02  -0.14    -0.11  -0.05   0.24
     9   1     0.08   0.03   0.17     0.07   0.02   0.14     0.11   0.05   0.24
    10   1     0.01  -0.10  -0.05     0.00  -0.01   0.00     0.08  -0.55  -0.29
    11   8     0.00   0.00   0.00     0.00   0.00   0.00     0.00   0.00   0.00
    12   1    -0.32   0.50  -0.30    -0.33   0.51  -0.31     0.09  -0.14   0.08
    13   1     0.32  -0.50  -0.30    -0.33   0.51   0.31    -0.09   0.14   0.08
                     31                     32                     33
                     A'                     A"                     A'
 Frequencies --   3718.9209              3725.2177              3733.1296
 Red. masses --      1.0956                 1.0991                 1.1025
 Frc consts  --      8.9273                 8.9863                 9.0525
 IR Inten    --      0.8963                16.9178                 3.5731
 Raman Activ --     53.1470                31.3309               159.7189
 Depolar (P) --      0.6653                 0.7500                 0.0852
 Depolar (U) --      0.7990                 0.8571                 0.1570
  Atom  AN      X      Y      Z        X      Y      Z        X      Y      Z
     1   6     0.01  -0.03   0.02     0.00   0.03  -0.01     0.01  -0.04   0.02
     2   6     0.02   0.01  -0.04     0.02   0.01  -0.05    -0.02  -0.01   0.04
     3   6     0.00  -0.01   0.00     0.01  -0.01   0.00     0.00   0.01   0.00
     4   6     0.00  -0.01   0.00    -0.01   0.01   0.00     0.00   0.01   0.00
     5   6     0.02   0.01   0.04    -0.02  -0.01  -0.05    -0.02  -0.01  -0.04
     6   6     0.01  -0.03  -0.02     0.00  -0.03  -0.01     0.01  -0.04  -0.02
     7   1    -0.06   0.41  -0.22     0.04  -0.27   0.14    -0.06   0.46  -0.24
     8   1    -0.22  -0.09   0.45    -0.27  -0.10   0.55     0.20   0.08  -0.41
     9   1    -0.22  -0.09  -0.45     0.27   0.10   0.55     0.20   0.08   0.41
    10   1    -0.06   0.41   0.22    -0.04   0.27   0.14    -0.06   0.46   0.24
    11   8     0.00   0.00   0.00     0.00   0.00   0.00     0.00   0.00   0.00
    12   1    -0.06   0.09  -0.05     0.06  -0.10   0.06     0.05  -0.08   0.04
    13   1    -0.06   0.09   0.05    -0.06   0.10   0.06     0.05  -0.08  -0.04

 -------------------
 - Thermochemistry -
 -------------------
 Temperature   298.150 Kelvin.  Pressure   1.00000 Atm.
 Atom     1 has atomic number  6 and mass  12.00000
 Atom     2 has atomic number  6 and mass  12.00000
 Atom     3 has atomic number  6 and mass  12.00000
 Atom     4 has atomic number  6 and mass  12.00000
 Atom     5 has atomic number  6 and mass  12.00000
 Atom     6 has atomic number  6 and mass  12.00000
 Atom     7 has atomic number  1 and mass   1.00783
 Atom     8 has atomic number  1 and mass   1.00783
 Atom     9 has atomic number  1 and mass   1.00783
 Atom    10 has atomic number  1 and mass   1.00783
 Atom    11 has atomic number  8 and mass  15.99491
 Atom    12 has atomic number  1 and mass   1.00783
 Atom    13 has atomic number  1 and mass   1.00783
 Molecular mass:    94.04186 amu.
 Principal axes and moments of inertia in atomic units:
                           1         2         3
     Eigenvalues --   416.17830 482.57952 793.00727
           X            0.01521   0.00000   0.99988
           Y            0.99988   0.00000  -0.01521
           Z            0.00000   1.00000   0.00000
 This molecule is an asymmetric top.
 Rotational symmetry number  1.
 Rotational temperatures (Kelvin)      0.20812     0.17948     0.10922
 Rotational constants (GHZ):           4.33646     3.73978     2.27582
    1 imaginary frequencies ignored.
 Zero-point vibrational energy     312185.5 (Joules/Mol)
                                   74.61413 (Kcal/Mol)
 Warning -- explicit consideration of   4 degrees of freedom as
           vibrations may cause significant error
 Vibrational temperatures:    461.57   560.01   744.03   773.33  1097.69
          (Kelvin)           1183.84  1210.18  1372.74  1403.11  1477.40
                             1606.84  1620.81  1642.52  1701.62  1715.49
                             1780.79  1861.18  1995.38  2021.35  2022.21
                             2244.26  2268.83  2432.40  2504.69  2705.98
                             2706.47  5275.92  5291.54  5330.70  5350.69
                             5359.75  5371.13
 
 Zero-point correction=                           0.118905 (Hartree/Particle)
 Thermal correction to Energy=                    0.123373
 Thermal correction to Enthalpy=                  0.124317
 Thermal correction to Gibbs Free Energy=         0.090626
 Sum of electronic and zero-point Energies=           -301.524668
 Sum of electronic and thermal Energies=              -301.520201
 Sum of electronic and thermal Enthalpies=            -301.519257
 Sum of electronic and thermal Free Energies=         -301.552947
 
                     E (Thermal)             CV                S
                      KCal/Mol        Cal/Mol-Kelvin    Cal/Mol-Kelvin
 Total                   77.418             16.637             70.908
 Electronic               0.000              0.000              0.000
 Translational            0.889              2.981             39.535
 Rotational               0.889              2.981             26.568
 Vibrational             75.640             10.676              4.805
 Vibration     1          0.706              1.634              1.306
 Vibration     2          0.757              1.493              1.003
 Vibration     3          0.872              1.212              0.617
 Vibration     4          0.893              1.167              0.571
                       Q            Log10(Q)             Ln(Q)
 Total Bot       0.206475D-41        -41.685133        -95.983565
 Total V=0       0.101704D+14         13.007340         29.950506
 Vib (Bot)       0.403201D-54        -54.394479       -125.247916
 Vib (Bot)    1  0.585684D+00         -0.232337         -0.534976
 Vib (Bot)    2  0.461503D+00         -0.335826         -0.773268
 Vib (Bot)    3  0.312957D+00         -0.504515         -1.161688
 Vib (Bot)    4  0.295466D+00         -0.529492         -1.219200
 Vib (V=0)       0.198606D+01          0.297993          0.686155
 Vib (V=0)    1  0.127008D+01          0.103832          0.239081
 Vib (V=0)    2  0.118043D+01          0.072040          0.165879
 Vib (V=0)    3  0.108987D+01          0.037373          0.086055
 Vib (V=0)    4  0.108078D+01          0.033736          0.077679
 Electronic      0.100000D+01          0.000000          0.000000
 Translational   0.358457D+08          7.554437         17.394734
 Rotational      0.142860D+06          5.154909         11.869617
 ***** Axes restored to original set *****
 -------------------------------------------------------------------
 Center     Atomic                   Forces (Hartrees/Bohr)
 Number     Number              X              Y              Z
 -------------------------------------------------------------------
      1        6           0.000008188   -0.000001795    0.000021207
      2        6          -0.000005663   -0.000007501   -0.000005498
      3        6          -0.000056078   -0.000015616    0.000020354
      4        6          -0.000056078   -0.000015616   -0.000020354
      5        6          -0.000005663   -0.000007501    0.000005498
      6        6           0.000008188   -0.000001795   -0.000021207
      7        1          -0.000009953    0.000004882   -0.000008044
      8        1           0.000014928    0.000005168    0.000006974
      9        1           0.000014928    0.000005168   -0.000006974
     10        1          -0.000009953    0.000004882    0.000008044
     11        8           0.000097275    0.000035164    0.000000000
     12        1          -0.000000060   -0.000002720    0.000008554
     13        1          -0.000000060   -0.000002720   -0.000008554
 -------------------------------------------------------------------
 Cartesian Forces:  Max     0.000097275 RMS     0.000023047

 GradGradGradGradGradGradGradGradGradGradGradGradGradGradGradGradGradGrad
 Berny optimization.
 Search for a local minimum.
 Step number   1 out of a maximum of    2
 All quantities printed in internal units (Hartrees-Bohrs-Radians)
 Second derivative matrix not updated -- analytic derivatives used.
 ITU=  0
     Eigenvalues ---   -0.29170   0.01581   0.01663   0.03179   0.03837
     Eigenvalues ---    0.04809   0.06070   0.06468   0.07210   0.07346
     Eigenvalues ---    0.08370   0.10680   0.11449   0.13066   0.19005
     Eigenvalues ---    0.19422   0.22117   0.24223   0.25439   0.28148
     Eigenvalues ---    0.34853   0.43135   0.54778   0.76055   0.91241
     Eigenvalues ---    1.08678   1.12357   1.22877   1.35385   1.41048
     Eigenvalues ---    1.49576   1.71176   1.71194
 Eigenvalue     1 is  -2.92D-01 should be greater than     0.000000 Eigenvector:
                          Z3        Z4        X11       X3        X4
   1                    0.54840  -0.54840  -0.32307   0.22703   0.22703
                          Y2        Y5        Z1        Z6        Z13
   1                    0.16654   0.16654  -0.14475   0.14475   0.11325
 Angle between quadratic step and forces=  70.19 degrees.
 ClnCor:  largest displacement from symmetrization is 2.48D-11 for atom    13.
 Linear search not attempted -- first point.
 ClnCor:  largest displacement from symmetrization is 5.33D-15 for atom     7.
 B after Tr=    -0.000009    0.000009    0.000000
         Rot=    1.000000    0.000000    0.000000   -0.000003 Ang=   0.00 deg.
 Variable       Old X    -DE/DX   Delta X   Delta X   Delta X     New X
                                 (Linear)    (Quad)   (Total)
    X1        0.37664   0.00001   0.00000  -0.00002  -0.00002   0.37663
    Y1       -2.65293   0.00000   0.00000   0.00000   0.00002  -2.65291
    Z1        1.30106   0.00002   0.00000   0.00003   0.00003   1.30109
    X2       -0.46684  -0.00001   0.00000   0.00006   0.00005  -0.46679
    Y2       -0.58035  -0.00001   0.00000  -0.00004  -0.00003  -0.58039
    Z2        2.73271  -0.00001   0.00000   0.00004   0.00004   2.73276
    X3       -0.46684  -0.00006   0.00000  -0.00009  -0.00011  -0.46695
    Y3        1.83955  -0.00002   0.00000   0.00000   0.00000   1.83956
    Z3        1.78655   0.00002   0.00000   0.00000   0.00000   1.78655
    X4       -0.46684  -0.00006   0.00000  -0.00009  -0.00011  -0.46695
    Y4        1.83955  -0.00002   0.00000   0.00000   0.00000   1.83956
    Z4       -1.78655  -0.00002   0.00000   0.00000   0.00000  -1.78655
    X5       -0.46684  -0.00001   0.00000   0.00006   0.00005  -0.46679
    Y5       -0.58035  -0.00001   0.00000  -0.00004  -0.00003  -0.58039
    Z5       -2.73271   0.00001   0.00000  -0.00004  -0.00004  -2.73276
    X6        0.37664   0.00001   0.00000  -0.00002  -0.00002   0.37663
    Y6       -2.65293   0.00000   0.00000   0.00000   0.00002  -2.65291
    Z6       -1.30106  -0.00002   0.00000  -0.00003  -0.00003  -1.30109
    X7        0.63141  -0.00001   0.00000  -0.00022  -0.00020   0.63121
    Y7       -4.44409   0.00000   0.00000  -0.00006  -0.00005  -4.44413
    Z7        2.25898  -0.00001   0.00000  -0.00007  -0.00007   2.25890
    X8       -1.34938   0.00001   0.00000   0.00036   0.00036  -1.34902
    Y8       -0.92090   0.00001   0.00000   0.00002   0.00003  -0.92088
    Z8        4.54610   0.00001   0.00000   0.00021   0.00021   4.54630
    X9       -1.34938   0.00001   0.00000   0.00036   0.00036  -1.34902
    Y9       -0.92090   0.00001   0.00000   0.00002   0.00003  -0.92088
    Z9       -4.54610  -0.00001   0.00000  -0.00021  -0.00021  -4.54630
   X10        0.63141  -0.00001   0.00000  -0.00022  -0.00020   0.63121
   Y10       -4.44409   0.00000   0.00000  -0.00006  -0.00005  -4.44413
   Z10       -2.25898   0.00001   0.00000   0.00007   0.00007  -2.25890
   X11        1.38096   0.00010   0.00000   0.00004   0.00001   1.38097
   Y11        2.58645   0.00004   0.00000   0.00011   0.00013   2.58658
   Z11        0.00000   0.00000   0.00000   0.00000   0.00000   0.00000
   X12       -1.46378   0.00000   0.00000  -0.00006  -0.00009  -1.46387
   Y12        3.38161   0.00000   0.00000  -0.00003  -0.00003   3.38158
   Z12       -2.71943   0.00001   0.00000  -0.00008  -0.00008  -2.71951
   X13       -1.46378   0.00000   0.00000  -0.00006  -0.00009  -1.46387
   Y13        3.38161   0.00000   0.00000  -0.00003  -0.00003   3.38158
   Z13        2.71943  -0.00001   0.00000   0.00008   0.00008   2.71951
         Item               Value     Threshold  Converged?
 Maximum Force            0.000097     0.000450     YES
 RMS     Force            0.000023     0.000300     YES
 Maximum Displacement     0.000358     0.001800     YES
 RMS     Displacement     0.000116     0.001200     YES
 Predicted change in Energy=-2.683596D-08
 Optimization completed.
    -- Stationary point found.
 GradGradGradGradGradGradGradGradGradGradGradGradGradGradGradGradGradGrad

 1\1\GINC-QC0019\Freq\RHF\STO-3G\C6H6O1\ELIOT\05-Oct-2018\0\\# freq hf/
 sto-3g\\ts-hf-sto.log\\0,1\C,0.19931,-1.40387,0.68849\C,-0.24704,-0.30
 711,1.44609\C,-0.24704,0.97345,0.9454\C,-0.24704,0.97345,-0.9454\C,-0.
 24704,-0.30711,-1.44609\C,0.19931,-1.40387,-0.68849\H,0.33413,-2.35171
 ,1.1954\H,-0.71406,-0.48732,2.40569\H,-0.71406,-0.48732,-2.40569\H,0.3
 3413,-2.35171,-1.1954\O,0.73077,1.36869,0.\H,-0.7746,1.78947,-1.43906\
 H,-0.7746,1.78947,1.43906\\Version=ES64L-G09RevE.01\State=1-A'\HF=-301
 .6435735\RMSD=2.552e-09\RMSF=2.305e-05\ZeroPoint=0.1189052\Thermal=0.1
 233728\Dipole=-0.6317336,-0.1009565,0.\DipoleDeriv=-0.0599113,-0.04737
 16,0.0506915,-0.0339676,-0.0356159,-0.0147747,-0.0028693,-0.1151628,-0
 .0597092,-0.1210945,0.0331587,-0.0625556,0.0289757,-0.1359218,-0.06320
 07,-0.0012574,-0.0291394,-0.1292197,0.0403063,0.0199235,-0.0614587,-0.
 0708759,0.1953987,0.0883791,-0.0884947,0.0389258,0.13749,0.0403063,0.0
 199235,0.0614587,-0.0708759,0.1953987,-0.0883791,0.0884947,-0.0389258,
 0.13749,-0.1210945,0.0331587,0.0625556,0.0289757,-0.1359218,0.0632007,
 0.0012574,0.0291394,-0.1292197,-0.0599113,-0.0473716,-0.0506915,-0.033
 9676,-0.0356159,0.0147747,0.0028693,0.1151628,-0.0597092,0.0673947,0.0
 078353,0.0279869,0.0063098,0.0517317,-0.021459,0.0104046,-0.005181,0.0
 546556,0.0643958,0.0299723,0.0096768,0.0076145,0.0630171,-0.0014166,0.
 0153192,-0.0107457,0.0886225,0.0643958,0.0299723,-0.0096768,0.0076145,
 0.0630171,0.0014166,-0.0153192,0.0107457,0.0886225,0.0673947,0.0078353
 ,-0.0279869,0.0063098,0.0517317,0.021459,-0.0104046,0.005181,0.0546556
 ,-0.0867316,0.0685809,0.,0.1053437,-0.3648712,0.,0.,0.0000001,-0.28615
 48,0.0522748,-0.0778087,-0.0145017,0.0092718,0.0438258,-0.0384082,-0.0
 296025,-0.0132775,0.0512382,0.0522748,-0.0778087,0.0145017,0.0092718,0
 .0438258,0.0384082,0.0296025,0.0132775,0.0512382\Polar=13.3185042,-6.0
 358809,47.392195,0.,0.,49.3125112\PolarDeriv=1.3238173,-1.0249249,-0.2
 049548,2.5074091,-1.4848272,-1.0848191,0.2282388,-1.5083963,-0.0053166
 ,0.3321805,2.0580067,1.0795133,1.0704213,-3.0182036,2.5392083,-0.31889
 5,1.6069079,4.9716534,-0.2558123,-1.2367492,-1.1021303,0.931655,0.1696
 342,2.9637921,-0.34183,2.2856144,-0.8455629,0.4543343,-4.633192,-5.612
 7332,-0.4206855,-0.1488691,0.0444002,1.7734962,-1.095794,1.1262622,-0.
 7941107,0.8812195,1.7566937,0.9050402,1.2051202,-0.6249767,-0.0016406,
 -0.7290715,0.3901497,-0.0465275,2.5872163,4.6701481,-0.0517105,2.86377
 71,4.4454146,0.4127734,-0.3861448,-3.4203632,-0.7941107,0.8812195,1.75
 66937,-0.9050402,-1.2051202,-0.6249767,-0.0016406,-0.7290715,0.3901497
 ,0.0465275,-2.5872163,4.6701481,0.0517105,-2.8637771,-4.4454146,0.4127
 734,-0.3861448,3.4203632,-0.2558123,-1.2367492,-1.1021303,-0.931655,-0
 .1696342,2.9637921,-0.34183,2.2856144,-0.8455629,-0.4543343,4.633192,-
 5.6127332,0.4206855,0.1488691,-0.0444002,1.7734962,-1.095794,-1.126262
 2,1.3238173,-1.0249249,-0.2049548,-2.5074091,1.4848272,-1.0848191,0.22
 82388,-1.5083963,-0.0053166,-0.3321805,-2.0580067,1.0795133,-1.0704213
 ,3.0182036,-2.5392083,-0.318895,1.6069079,-4.9716534,0.5592966,-1.3507
 557,0.5411556,0.6218741,-0.2295739,0.470809,-0.3216334,1.108377,-6.461
 8584,-0.4362633,2.7706544,-0.9143744,0.11651,-0.3453789,1.5664928,0.60
 98697,-2.5289363,2.6583648,-1.401849,-0.437327,0.295216,2.1369108,1.05
 10915,-2.2177059,-0.1347707,-0.6681425,-0.6273901,0.3596212,2.1780363,
 -0.5758054,0.5989414,0.0779114,0.174173,-2.0493738,-0.5398938,7.764366
 7,-1.401849,-0.437327,0.295216,-2.1369108,-1.0510915,-2.2177059,-0.134
 7707,-0.6681425,-0.6273901,-0.3596212,-2.1780363,-0.5758054,-0.5989414
 ,-0.0779114,-0.174173,-2.0493738,-0.5398938,-7.7643667,0.5592966,-1.35
 07557,0.5411556,-0.6218741,0.2295739,0.470809,-0.3216334,1.108377,-6.4
 618584,0.4362633,-2.7706544,-0.9143744,-0.11651,0.3453789,-1.5664928,0
 .6098697,-2.5289363,-2.6583648,4.922917,2.4527587,-0.593237,-0.0000003
 ,0.0000004,3.5448798,0.4178502,2.2108775,3.9819647,0.0000001,-0.000000
 4,0.8086721,-0.0000002,0.,-0.0000008,1.4720156,1.6082551,0.0000012,-1.
 8928004,1.9421583,-0.9893619,-1.5379152,1.2941723,-1.279538,0.3627109,
 -1.5938198,5.5589965,0.5520117,-2.5282308,0.9489148,-0.4229987,0.99631
 11,-1.121666,-1.1638781,2.139733,-2.2060565,-1.8928004,1.9421583,-0.98
 93619,1.5379152,-1.2941723,-1.279538,0.3627109,-1.5938198,5.5589965,-0
 .5520117,2.5282308,0.9489148,0.4229987,-0.9963111,1.121666,-1.1638781,
 2.139733,2.2060565\HyperPolar=-3.3981512,0.270783,-13.6431309,-16.4896
 144,0.,0.,0.,-7.8929478,-0.2078749,0.\PG=CS [SG(O1),X(C6H6)]\NImag=1\\
 0.23605533,-0.16803166,0.88071971,-0.03642681,-0.08848464,0.88030493,-
 0.12226927,0.09417827,0.05467134,0.32596705,0.05154561,-0.27605040,0.0
 1676401,-0.04929616,0.83145796,0.07345962,-0.14316617,-0.22103375,-0.2
 8811034,-0.08487503,0.83736677,0.00486793,0.03143866,0.03287204,-0.089
 14398,-0.03207814,0.01753334,0.45879631,0.03030852,-0.09003406,-0.0701
 7333,-0.01050382,-0.44127545,0.16243018,-0.06706077,0.95583847,-0.0357
 7741,0.06908880,0.15093549,0.06595643,-0.03991802,-0.17510711,-0.35669
 758,0.00408443,0.39964556,-0.01623293,0.02870342,0.03357940,0.00236498
 ,-0.05481831,0.01542497,-0.00965442,0.02816963,-0.07837161,0.45879631,
 0.00760676,-0.03339839,-0.07751089,-0.01315155,0.07295074,0.01914194,0
 .02816963,-0.04628925,0.07694335,-0.06706077,0.95583847,0.02113219,-0.
 06546302,-0.13452087,-0.03914932,0.16827590,0.00338667,0.07837161,-0.0
 7694335,0.09431516,0.35669758,-0.00408443,0.39964556,0.00916549,-0.010
 78424,-0.03381525,-0.00852110,0.03042723,0.00599812,0.00236498,-0.0131
 5155,0.03914932,-0.08914398,-0.01050382,-0.06595643,0.32596705,-0.0142
 5682,0.08032224,0.17107749,0.03042723,-0.15973461,-0.02184681,-0.05481
 831,0.07295074,-0.16827590,-0.03207814,-0.44127545,0.03991802,-0.04929
 616,0.83145796,-0.00956390,0.02008209,-0.05327368,-0.00599812,0.021846
 81,0.00012083,-0.01542497,-0.01914194,0.00338667,-0.01753334,-0.162430
 18,-0.17510711,0.28811034,0.08487503,0.83736677,-0.07922597,0.02118721
 ,0.01049664,0.00916549,-0.01425682,0.00956390,-0.01623293,0.00760676,-
 0.02113219,0.00486793,0.03030852,0.03577741,-0.12226927,0.05154561,-0.
 07345962,0.23605533,0.02118721,-0.18870421,-0.09095981,-0.01078424,0.0
 8032224,-0.02008209,0.02870342,-0.03339839,0.06546302,0.03143866,-0.09
 003406,-0.06908880,0.09417827,-0.27605040,0.14316617,-0.16803166,0.880
 71971,-0.01049664,0.09095981,-0.43613766,0.03381525,-0.17107749,-0.053
 27368,-0.03357940,0.07751089,-0.13452087,-0.03287204,0.07017333,0.1509
 3549,-0.05467134,-0.01676401,-0.22103375,0.03642681,0.08848464,0.88030
 493,-0.06179910,0.05036052,-0.00423139,0.00577176,-0.00155196,-0.00767
 011,0.00455973,0.00613831,-0.00464407,-0.00324608,0.00324846,0.0070300
 6,0.01221840,-0.00213112,0.00194494,0.00395719,-0.00025501,-0.00904562
 ,0.04494438,0.05080826,-0.37810633,0.16509706,0.00032946,-0.02028868,0
 .01845101,0.00584561,-0.00049084,-0.00608095,-0.00284748,0.00066236,-0
 .00112002,0.00209033,0.00098105,0.00002744,-0.00001946,0.00656607,-0.0
 1141382,-0.05315131,0.38811154,-0.01860670,0.16032998,-0.16250796,0.00
 318132,-0.02686524,0.01411773,0.00308092,-0.00254956,-0.00328239,0.000
 34954,-0.00043751,0.00076622,0.00097935,-0.00313783,-0.00546245,-0.005
 56145,0.03810848,-0.01444835,0.01919526,-0.16670374,0.16757617,0.00438
 299,-0.01689175,-0.00458339,-0.13203222,-0.00230806,0.16846368,0.00811
 668,-0.00698990,0.01234042,0.00661841,-0.00582977,-0.01281429,-0.00287
 471,0.01280350,-0.00300971,0.00654412,-0.00105437,0.01250525,-0.003075
 14,-0.00177601,-0.00136271,0.11737190,0.01431486,0.00751620,-0.0343202
 6,-0.01998342,-0.08316299,0.06386749,-0.01945927,-0.00243391,0.0338384
 8,-0.00123039,-0.00255020,-0.00278244,0.00017061,0.00170534,-0.0005038
 2,0.00298508,-0.00535999,0.00113119,-0.00106279,0.00160431,0.00026083,
 0.02439490,0.08553701,0.00665490,0.00249810,-0.01791413,0.15856474,0.0
 7380455,-0.37895946,0.01083704,-0.01065475,0.00142494,0.00098646,-0.00
 327646,-0.00773722,-0.00126634,0.00796547,0.00050297,0.00608446,-0.004
 94820,0.00748185,-0.00269037,-0.00046739,0.00094937,-0.17319368,-0.064
 01046,0.38998054,0.00654412,-0.00105437,-0.01250525,-0.00287471,0.0128
 0350,0.00300971,0.00661841,-0.00582977,0.01281429,0.00811668,-0.006989
 90,-0.01234042,-0.13203222,-0.00230806,-0.16846368,0.00438299,-0.01689
 175,0.00458339,0.00128995,-0.00017655,-0.00064975,-0.00122042,-0.00033
 836,-0.00100134,0.11737190,0.00298508,-0.00535999,-0.00113119,0.000170
 61,0.00170534,0.00050382,-0.00123039,-0.00255020,0.00278244,-0.0194592
 7,-0.00243391,-0.03383848,-0.01998342,-0.08316299,-0.06386749,0.014314
 86,0.00751620,0.03432026,-0.00112028,0.00000609,0.00119798,-0.00033836
 ,0.00016884,-0.00022369,0.02439490,0.08553701,-0.00608446,0.00494820,0
 .00748185,0.00126634,-0.00796547,0.00050297,-0.00098646,0.00327646,-0.
 00773722,-0.01083704,0.01065475,0.00142494,-0.15856474,-0.07380455,-0.
 37895946,-0.00665490,-0.00249810,-0.01791413,0.00009420,-0.00020624,-0
 .00015859,0.00100134,0.00022369,0.00011408,0.17319368,0.06401046,0.389
 98054,0.00395719,-0.00025501,0.00904562,0.01221840,-0.00213112,-0.0019
 4494,-0.00324608,0.00324846,-0.00703006,0.00455973,0.00613831,0.004644
 07,0.00577176,-0.00155196,0.00767011,-0.06179910,0.05036052,0.00423139
 ,-0.00735745,-0.00161491,-0.00039685,0.00128995,-0.00112028,-0.0000942
 0,-0.00307514,-0.00106279,0.00269037,0.04494438,-0.00001946,0.00656607
 ,0.01141382,0.00209033,0.00098105,-0.00002744,-0.00284748,0.00066236,0
 .00112002,0.00584561,-0.00049084,0.00608095,0.00032946,-0.02028868,-0.
 01845101,0.05080826,-0.37810633,-0.16509706,-0.00161491,0.00147956,0.0
 0023384,-0.00017655,0.00000609,0.00020624,-0.00177601,0.00160431,0.000
 46739,-0.05315131,0.38811154,0.00556145,-0.03810848,-0.01444835,-0.000
 97935,0.00313783,-0.00546245,-0.00034954,0.00043751,0.00076622,-0.0030
 8092,0.00254956,-0.00328239,-0.00318132,0.02686524,0.01411773,0.018606
 70,-0.16032998,-0.16250796,0.00039685,-0.00023384,0.00230942,0.0006497
 5,-0.00119798,-0.00015859,0.00136271,-0.00026083,0.00094937,-0.0191952
 6,0.16670374,0.16757617,0.00920168,-0.02974702,-0.05482481,-0.00886165
 ,0.06930438,0.00621533,-0.22510681,-0.10774714,0.27751183,-0.22510682,
 -0.10774715,-0.27751181,-0.00886165,0.06930438,-0.00621534,0.00920168,
 -0.02974701,0.05482480,0.00290129,0.00081607,0.00029819,-0.00181969,0.
 00166608,-0.00231877,-0.00181969,0.00166609,0.00231878,0.00290129,0.00
 081607,-0.00029819,0.47950446,0.00156650,-0.00192380,-0.00869408,-0.03
 816146,0.00696850,0.02751790,-0.05768545,-0.11244206,0.08637426,-0.057
 68545,-0.11244207,-0.08637425,-0.03816145,0.00696850,-0.02751791,0.001
 56649,-0.00192380,0.00869408,0.00143286,0.00072533,0.00059016,-0.00063
 350,-0.00447285,-0.00015280,-0.00063351,-0.00447285,0.00015279,0.00143
 286,0.00072533,-0.00059016,0.14931547,0.19016042,0.00388802,-0.0159305
 0,0.00117094,0.02416966,0.02921023,-0.03675347,0.18342154,0.06596475,-
 0.19285456,-0.18342153,-0.06596475,-0.19285456,-0.02416967,-0.02921023
 ,-0.03675346,-0.00388802,0.01593050,0.00117094,-0.00062374,0.00207919,
 -0.00055857,0.00346582,0.00473199,0.00507503,-0.00346582,-0.00473199,0
 .00507503,0.00062374,-0.00207919,-0.00055857,0.,0.,0.48750377,-0.00029
 432,-0.00124322,0.00171677,0.00223536,-0.00033670,-0.00221231,0.000147
 82,-0.00530995,0.00443861,-0.14208763,0.14112121,-0.09144202,0.0059798
 8,-0.00730345,-0.00026903,0.00564688,0.00213920,-0.00400508,-0.0004761
 4,0.00039987,-0.00024244,-0.00009340,0.00027623,0.00028161,-0.00320846
 ,-0.00061324,0.00284451,0.00031122,-0.00070388,0.00026469,-0.01606704,
 0.01882332,-0.01947915,0.14694078,-0.00059187,0.00191790,-0.00002813,0
 .00036002,-0.00137543,0.00036666,0.00006120,-0.00075556,-0.00194925,0.
 14096129,-0.29978184,0.12347067,0.01432474,-0.01249827,0.02228147,0.00
 257700,-0.00346495,-0.00694995,-0.00033528,-0.00028473,0.00022607,0.00
 009250,0.00024085,-0.00011111,-0.00129262,0.00120129,0.00062950,0.0000
 4251,-0.00096573,0.00125345,-0.00895011,0.01606467,-0.00791309,-0.1471
 8801,0.29902463,0.00108499,-0.00134114,-0.00290337,-0.00020168,0.00324
 983,0.00105487,-0.01065055,-0.00029129,0.00378984,-0.09157201,0.133950
 00,-0.14076172,0.00718629,-0.01441209,0.01404008,-0.00517475,-0.004586
 95,0.00284656,0.00050498,0.00012308,0.00021704,-0.00040113,0.00004435,
 -0.00023591,0.00306135,0.00128306,-0.00052346,0.00026099,-0.00044822,0
 .00048237,-0.01381748,0.01318380,-0.01983126,0.10891142,-0.13101537,0.
 14139120,0.00564688,0.00213920,0.00400508,0.00597988,-0.00730345,0.000
 26903,-0.14208763,0.14112121,0.09144202,0.00014782,-0.00530995,-0.0044
 3861,0.00223536,-0.00033670,0.00221231,-0.00029432,-0.00124322,-0.0017
 1677,0.00031122,-0.00070388,-0.00026469,-0.00320846,-0.00061324,-0.002
 84451,-0.00009340,0.00027623,-0.00028161,-0.00047614,0.00039987,0.0002
 4244,-0.01606704,0.01882332,0.01947915,0.00096505,-0.00006137,0.000807
 57,0.14694078,0.00257700,-0.00346495,0.00694995,0.01432474,-0.01249827
 ,-0.02228147,0.14096129,-0.29978184,-0.12347067,0.00006120,-0.00075556
 ,0.00194925,0.00036002,-0.00137543,-0.00036666,-0.00059187,0.00191790,
 0.00002813,0.00004251,-0.00096573,-0.00125345,-0.00129262,0.00120129,-
 0.00062950,0.00009250,0.00024085,0.00011111,-0.00033528,-0.00028473,-0
 .00022607,-0.00895011,0.01606467,0.00791309,-0.00006137,0.00067717,0.0
 0026093,-0.14718801,0.29902463,0.00517475,0.00458695,0.00284656,-0.007
 18629,0.01441209,0.01404008,0.09157201,-0.13395000,-0.14076172,0.01065
 055,0.00029129,0.00378984,0.00020168,-0.00324983,0.00105487,-0.0010849
 9,0.00134114,-0.00290337,-0.00026099,0.00044822,0.00048237,-0.00306135
 ,-0.00128306,-0.00052346,0.00040113,-0.00004435,-0.00023591,-0.0005049
 8,-0.00012308,0.00021704,0.01381748,-0.01318380,-0.01983126,-0.0008075
 7,-0.00026093,0.00043377,-0.10891142,0.13101537,0.14139120\\-0.0000081
 9,0.00000180,-0.00002121,0.00000566,0.00000750,0.00000550,0.00005608,0
 .00001562,-0.00002035,0.00005608,0.00001562,0.00002035,0.00000566,0.00
 000750,-0.00000550,-0.00000819,0.00000180,0.00002121,0.00000995,-0.000
 00488,0.00000804,-0.00001493,-0.00000517,-0.00000697,-0.00001493,-0.00
 000517,0.00000697,0.00000995,-0.00000488,-0.00000804,-0.00009728,-0.00
 003516,0.,0.00000006,0.00000272,-0.00000855,0.00000006,0.00000272,0.00
 000855\\\@


 THE MORE ACCURATE THE CALCULATIONS BECOME, THE MORE THE CONCEPTS
 TEND TO VANISH INTO THIN AIR.
     -- R.S. MULLIKEN, J.C.P. 43,S2(1965)
 Job cpu time:       0 days  0 hours  0 minutes  2.5 seconds.
 File lengths (MBytes):  RWF=      5 Int=      0 D2E=      0 Chk=      1 Scr=      1
 Normal termination of Gaussian 09 at Fri Oct  5 10:43:45 2018.
