 Entering Gaussian System, Link 0=/home/eliot/software/g09E01/g09
 Initial command:
 /home/eliot/software/g09E01/l1.exe "/tmp/Gau-15522.inp" -scrdir="/tmp/"
 Entering Link 1 = /home/eliot/software/g09E01/l1.exe PID=     15524.
  
 Copyright (c) 1988,1990,1992,1993,1995,1998,2003,2009,2015,
            Gaussian, Inc.  All Rights Reserved.
  
 This is part of the Gaussian(R) 09 program.  It is based on
 the Gaussian(R) 03 system (copyright 2003, Gaussian, Inc.),
 the Gaussian(R) 98 system (copyright 1998, Gaussian, Inc.),
 the Gaussian(R) 94 system (copyright 1995, Gaussian, Inc.),
 the Gaussian 92(TM) system (copyright 1992, Gaussian, Inc.),
 the Gaussian 90(TM) system (copyright 1990, Gaussian, Inc.),
 the Gaussian 88(TM) system (copyright 1988, Gaussian, Inc.),
 the Gaussian 86(TM) system (copyright 1986, Carnegie Mellon
 University), and the Gaussian 82(TM) system (copyright 1983,
 Carnegie Mellon University). Gaussian is a federally registered
 trademark of Gaussian, Inc.
  
 This software contains proprietary and confidential information,
 including trade secrets, belonging to Gaussian, Inc.
  
 This software is provided under written license and may be
 used, copied, transmitted, or stored only in accord with that
 written license.
  
 The following legend is applicable only to US Government
 contracts under FAR:
  
                    RESTRICTED RIGHTS LEGEND
  
 Use, reproduction and disclosure by the US Government is
 subject to restrictions as set forth in subparagraphs (a)
 and (c) of the Commercial Computer Software - Restricted
 Rights clause in FAR 52.227-19.
  
 Gaussian, Inc.
 340 Quinnipiac St., Bldg. 40, Wallingford CT 06492
  
  
 ---------------------------------------------------------------
 Warning -- This program may not be used in any manner that
 competes with the business of Gaussian, Inc. or will provide
 assistance to any competitor of Gaussian, Inc.  The licensee
 of this program is prohibited from giving any competitor of
 Gaussian, Inc. access to this program.  By using this program,
 the user acknowledges that Gaussian, Inc. is engaged in the
 business of creating and licensing software in the field of
 computational chemistry and represents and warrants to the
 licensee that it is not a competitor of Gaussian, Inc. and that
 it will not use this program in any manner prohibited above.
 ---------------------------------------------------------------
  

 Cite this work as:
 Gaussian 09, Revision E.01,
 M. J. Frisch, G. W. Trucks, H. B. Schlegel, G. E. Scuseria, 
 M. A. Robb, J. R. Cheeseman, G. Scalmani, V. Barone, B. Mennucci, 
 G. A. Petersson, H. Nakatsuji, M. Caricato, X. Li, H. P. Hratchian, 
 A. F. Izmaylov, J. Bloino, G. Zheng, J. L. Sonnenberg, M. Hada, 
 M. Ehara, K. Toyota, R. Fukuda, J. Hasegawa, M. Ishida, T. Nakajima, 
 Y. Honda, O. Kitao, H. Nakai, T. Vreven, J. A. Montgomery, Jr., 
 J. E. Peralta, F. Ogliaro, M. Bearpark, J. J. Heyd, E. Brothers, 
 K. N. Kudin, V. N. Staroverov, T. Keith, R. Kobayashi, J. Normand, 
 K. Raghavachari, A. Rendell, J. C. Burant, S. S. Iyengar, J. Tomasi, 
 M. Cossi, N. Rega, J. M. Millam, M. Klene, J. E. Knox, J. B. Cross, 
 V. Bakken, C. Adamo, J. Jaramillo, R. Gomperts, R. E. Stratmann, 
 O. Yazyev, A. J. Austin, R. Cammi, C. Pomelli, J. W. Ochterski, 
 R. L. Martin, K. Morokuma, V. G. Zakrzewski, G. A. Voth, 
 P. Salvador, J. J. Dannenberg, S. Dapprich, A. D. Daniels, 
 O. Farkas, J. B. Foresman, J. V. Ortiz, J. Cioslowski, 
 and D. J. Fox, Gaussian, Inc., Wallingford CT, 2013.
 
 ******************************************
 Gaussian 09:  ES64L-G09RevE.01 30-Nov-2015
                 5-Oct-2018 
 ******************************************
 %nproc=4
 Will use up to    4 processors via shared memory.
 -----------------
 # mp2/aug-cc-pvdz
 -----------------
 1/38=1/1;
 2/12=2,17=6,18=5,40=1/2;
 3/5=16,7=10,11=9,16=1,25=1,30=1/1,2,3;
 4//1;
 5/5=2,38=5/2;
 8/10=1/1;
 9/16=-3/6;
 6/7=2,8=2,9=2,10=2/1;
 99/5=1,9=1/99;
 -----------
 ts-bp86.log
 -----------
 Symbolic Z-matrix:
 Charge =  0 Multiplicity = 1
 C                    -1.4209    0.70581   0.16632 
 C                    -0.30645   1.45966  -0.24861 
 C                     0.99622   0.93864  -0.22529 
 C                     0.99622  -0.93864  -0.2253 
 C                    -0.30645  -1.45966  -0.24861 
 C                    -1.4209   -0.70581   0.16632 
 H                    -2.38948   1.2188    0.28786 
 H                    -0.45767   2.45469  -0.70013 
 H                    -0.45767  -2.45469  -0.70014 
 H                    -2.38948  -1.2188    0.28786 
 O                     1.34735   0.        0.74899 
 H                     1.8445   -1.43074  -0.73815 
 H                     1.8445    1.43074  -0.73815 
 
                          Input orientation:                          
 ---------------------------------------------------------------------
 Center     Atomic      Atomic             Coordinates (Angstroms)
 Number     Number       Type             X           Y           Z
 ---------------------------------------------------------------------
      1          6           0       -1.420900    0.705810    0.166320
      2          6           0       -0.306450    1.459660   -0.248610
      3          6           0        0.996220    0.938640   -0.225290
      4          6           0        0.996220   -0.938640   -0.225300
      5          6           0       -0.306450   -1.459660   -0.248610
      6          6           0       -1.420900   -0.705810    0.166320
      7          1           0       -2.389480    1.218800    0.287860
      8          1           0       -0.457670    2.454690   -0.700130
      9          1           0       -0.457670   -2.454690   -0.700140
     10          1           0       -2.389480   -1.218800    0.287860
     11          8           0        1.347350    0.000000    0.748990
     12          1           0        1.844500   -1.430740   -0.738150
     13          1           0        1.844500    1.430740   -0.738150
 ---------------------------------------------------------------------
                    Distance matrix (angstroms):
                    1          2          3          4          5
     1  C    0.000000
     2  C    1.407997   0.000000
     3  C    2.459682   1.403194   0.000000
     4  C    2.949585   2.729347   1.877280   0.000000
     5  C    2.470511   2.919320   2.729347   1.403194   0.000000
     6  C    1.411620   2.470511   2.949584   2.459684   1.407997
     7  H    1.102759   2.164446   3.435808   4.047326   3.435253
     8  H    2.176495   1.103097   2.153527   3.722089   3.943206
     9  H    3.415747   3.943207   3.722092   2.153527   1.103101
    10  H    2.158018   3.435253   4.047324   3.435810   2.164446
    11  O    2.915627   2.420923   1.397698   1.397705   2.420923
    12  H    4.005715   3.636021   2.568378   1.106687   2.206144
    13  H    3.465029   2.206144   1.106692   2.568376   3.636021
                    6          7          8          9         10
     6  C    0.000000
     7  H    2.158018   0.000000
     8  H    3.415744   2.497086   0.000000
     9  H    2.176499   4.266446   4.909380   0.000000
    10  H    1.102759   2.437600   4.266444   2.497090   0.000000
    11  O    2.915627   3.957526   3.373952   3.373956   3.957526
    12  H    3.465029   5.098955   4.516414   2.519902   4.361674
    13  H    4.005715   4.361674   2.519902   4.516414   5.098955
                   11         12         13
    11  O    0.000000
    12  H    2.122678   0.000000
    13  H    2.122678   2.861480   0.000000
 Stoichiometry    C6H6O
 Framework group  C1[X(C6H6O)]
 Deg. of freedom    33
 Full point group                 C1      NOp   1
 Largest Abelian subgroup         C1      NOp   1
 Largest concise Abelian subgroup C1      NOp   1
                         Standard orientation:                         
 ---------------------------------------------------------------------
 Center     Atomic      Atomic             Coordinates (Angstroms)
 Number     Number       Type             X           Y           Z
 ---------------------------------------------------------------------
      1          6           0       -1.420899    0.705810    0.166319
      2          6           0       -0.306449    1.459660   -0.248611
      3          6           0        0.996221    0.938640   -0.225291
      4          6           0        0.996221   -0.938640   -0.225301
      5          6           0       -0.306449   -1.459660   -0.248611
      6          6           0       -1.420899   -0.705810    0.166319
      7          1           0       -2.389479    1.218800    0.287859
      8          1           0       -0.457669    2.454690   -0.700131
      9          1           0       -0.457669   -2.454690   -0.700141
     10          1           0       -2.389479   -1.218800    0.287859
     11          8           0        1.347351    0.000000    0.748989
     12          1           0        1.844501   -1.430740   -0.738151
     13          1           0        1.844501    1.430740   -0.738151
 ---------------------------------------------------------------------
 Rotational constants (GHZ):      4.2853452      3.6930166      2.2370040
 Standard basis: Aug-CC-pVDZ (5D, 7F)
 There are   229 symmetry adapted cartesian basis functions of A   symmetry.
 There are   215 symmetry adapted basis functions of A   symmetry.
   215 basis functions,   367 primitive gaussians,   229 cartesian basis functions
    25 alpha electrons       25 beta electrons
       nuclear repulsion energy       277.8012873845 Hartrees.
 NAtoms=   13 NActive=   13 NUniq=   13 SFac= 1.00D+00 NAtFMM=   60 NAOKFM=F Big=F
 Integral buffers will be    131072 words long.
 Raffenetti 1 integral format.
 Two-electron integral symmetry is turned on.
 One-electron integrals computed using PRISM.
 NBasis=   215 RedAO= T EigKep=  5.48D-06  NBF=   215
 NBsUse=   215 1.00D-06 EigRej= -1.00D+00 NBFU=   215
 ExpMin= 2.97D-02 ExpMax= 1.17D+04 ExpMxC= 4.01D+02 IAcc=3 IRadAn=         5 AccDes= 0.00D+00
 Harris functional with IExCor=  205 and IRadAn=       5 diagonalized for initial guess.
 HarFok:  IExCor=  205 AccDes= 0.00D+00 IRadAn=         5 IDoV= 1 UseB2=F ITyADJ=14
 ICtDFT=  3500011 ScaDFX=  1.000000  1.000000  1.000000  1.000000
 FoFCou: FMM=F IPFlag=           0 FMFlag=      100000 FMFlg1=           0
         NFxFlg=           0 DoJE=T BraDBF=F KetDBF=T FulRan=T
         wScrn=  0.000000 ICntrl=     500 IOpCl=  0 I1Cent=   200000004 NGrid=           0
         NMat0=    1 NMatS0=      1 NMatT0=    0 NMatD0=    1 NMtDS0=    0 NMtDT0=    0
 Petite list used in FoFCou.
 Requested convergence on RMS density matrix=1.00D-08 within 128 cycles.
 Requested convergence on MAX density matrix=1.00D-06.
 Requested convergence on             energy=1.00D-06.
 No special actions if energy rises.
 Initial convergence to 1.0D-05 achieved.  Increase integral accuracy.
 SCF Done:  E(RHF) =  -305.496838759     A.U. after   13 cycles
            NFock= 13  Conv=0.82D-08     -V/T= 2.0024
 ExpMin= 2.97D-02 ExpMax= 1.17D+04 ExpMxC= 4.01D+02 IAcc=3 IRadAn=         5 AccDes= 0.00D+00
 HarFok:  IExCor=  205 AccDes= 0.00D+00 IRadAn=         5 IDoV=-2 UseB2=F ITyADJ=14
 ICtDFT= 12500011 ScaDFX=  1.000000  1.000000  1.000000  1.000000
 Range of M.O.s used for correlation:     8   215
 NBasis=   215 NAE=    25 NBE=    25 NFC=     7 NFV=     0
 NROrb=    208 NOA=    18 NOB=    18 NVA=   190 NVB=   190

 **** Warning!!: The largest alpha MO coefficient is  0.78472180D+02

 Fully direct method using O(OVN) memory.
 JobTyp=1 Pass  1:  I=   1 to   4 NPSUse=  4 ParTrn=T ParDer=T DoDerP=F.
 JobTyp=1 Pass  2:  I=   5 to  10 NPSUse=  4 ParTrn=T ParDer=T DoDerP=F.
 JobTyp=1 Pass  3:  I=  11 to  18 NPSUse=  4 ParTrn=T ParDer=T DoDerP=F.
 Spin components of T(2) and E(2):
     alpha-alpha T2 =       0.5371472291D-01 E2=     -0.1379307193D+00
     alpha-beta  T2 =       0.2746531691D+00 E2=     -0.7550266041D+00
     beta-beta   T2 =       0.5371472291D-01 E2=     -0.1379307193D+00
 ANorm=    0.1175620098D+01
 E2 =    -0.1030888043D+01 EUMP2 =    -0.30652772680204D+03

 **********************************************************************

            Population analysis using the SCF density.

 **********************************************************************

 Orbital symmetries:
       Occupied  (A) (A) (A) (A) (A) (A) (A) (A) (A) (A) (A) (A)
                 (A) (A) (A) (A) (A) (A) (A) (A) (A) (A) (A) (A)
                 (A)
       Virtual   (A) (A) (A) (A) (A) (A) (A) (A) (A) (A) (A) (A)
                 (A) (A) (A) (A) (A) (A) (A) (A) (A) (A) (A) (A)
                 (A) (A) (A) (A) (A) (A) (A) (A) (A) (A) (A) (A)
                 (A) (A) (A) (A) (A) (A) (A) (A) (A) (A) (A) (A)
                 (A) (A) (A) (A) (A) (A) (A) (A) (A) (A) (A) (A)
                 (A) (A) (A) (A) (A) (A) (A) (A) (A) (A) (A) (A)
                 (A) (A) (A) (A) (A) (A) (A) (A) (A) (A) (A) (A)
                 (A) (A) (A) (A) (A) (A) (A) (A) (A) (A) (A) (A)
                 (A) (A) (A) (A) (A) (A) (A) (A) (A) (A) (A) (A)
                 (A) (A) (A) (A) (A) (A) (A) (A) (A) (A) (A) (A)
                 (A) (A) (A) (A) (A) (A) (A) (A) (A) (A) (A) (A)
                 (A) (A) (A) (A) (A) (A) (A) (A) (A) (A) (A) (A)
                 (A) (A) (A) (A) (A) (A) (A) (A) (A) (A) (A) (A)
                 (A) (A) (A) (A) (A) (A) (A) (A) (A) (A) (A) (A)
                 (A) (A) (A) (A) (A) (A) (A) (A) (A) (A) (A) (A)
                 (A) (A) (A) (A) (A) (A) (A) (A) (A) (A)
 The electronic state is 1-A.
 Alpha  occ. eigenvalues --  -20.60737 -11.32177 -11.32163 -11.25439 -11.25335
 Alpha  occ. eigenvalues --  -11.25095 -11.25092  -1.43903  -1.11131  -1.04582
 Alpha  occ. eigenvalues --   -0.94859  -0.87752  -0.78748  -0.72360  -0.71744
 Alpha  occ. eigenvalues --   -0.64904  -0.63017  -0.62505  -0.58322  -0.53536
 Alpha  occ. eigenvalues --   -0.51873  -0.47890  -0.46226  -0.32499  -0.32333
 Alpha virt. eigenvalues --    0.03470   0.04125   0.04180   0.05646   0.05721
 Alpha virt. eigenvalues --    0.07454   0.09177   0.10224   0.11172   0.12214
 Alpha virt. eigenvalues --    0.12501   0.13591   0.14486   0.14829   0.15051
 Alpha virt. eigenvalues --    0.15454   0.15545   0.16082   0.16526   0.16757
 Alpha virt. eigenvalues --    0.17692   0.18162   0.18539   0.18885   0.19604
 Alpha virt. eigenvalues --    0.19775   0.22163   0.24598   0.27778   0.28396
 Alpha virt. eigenvalues --    0.30908   0.30947   0.32562   0.32804   0.32885
 Alpha virt. eigenvalues --    0.33079   0.34350   0.35004   0.36613   0.37732
 Alpha virt. eigenvalues --    0.38522   0.39141   0.39687   0.41011   0.41423
 Alpha virt. eigenvalues --    0.41969   0.42385   0.42518   0.44149   0.44992
 Alpha virt. eigenvalues --    0.47811   0.49402   0.50066   0.51765   0.52305
 Alpha virt. eigenvalues --    0.54853   0.55083   0.55657   0.55699   0.59135
 Alpha virt. eigenvalues --    0.59263   0.59947   0.61038   0.61619   0.64196
 Alpha virt. eigenvalues --    0.64698   0.65010   0.65717   0.66578   0.67793
 Alpha virt. eigenvalues --    0.68186   0.69906   0.70113   0.71075   0.73790
 Alpha virt. eigenvalues --    0.74630   0.75738   0.76560   0.77803   0.79169
 Alpha virt. eigenvalues --    0.80407   0.80459   0.83717   0.84285   0.84651
 Alpha virt. eigenvalues --    0.87536   0.87572   0.89251   0.89901   0.91504
 Alpha virt. eigenvalues --    0.92501   0.94071   0.95121   0.96799   0.97340
 Alpha virt. eigenvalues --    0.97980   1.02896   1.03222   1.05326   1.07509
 Alpha virt. eigenvalues --    1.12224   1.13428   1.15104   1.17285   1.17400
 Alpha virt. eigenvalues --    1.23971   1.27141   1.30859   1.31088   1.38798
 Alpha virt. eigenvalues --    1.40256   1.42081   1.42497   1.43017   1.48645
 Alpha virt. eigenvalues --    1.50075   1.54124   1.54384   1.59381   1.59419
 Alpha virt. eigenvalues --    1.61432   1.62954   1.63672   1.65205   1.66724
 Alpha virt. eigenvalues --    1.68952   1.69779   1.71895   1.72214   1.73557
 Alpha virt. eigenvalues --    1.77386   1.77852   1.83987   1.84767   1.85865
 Alpha virt. eigenvalues --    1.87483   1.89023   1.89901   1.91346   1.91813
 Alpha virt. eigenvalues --    1.95478   1.96667   1.99685   2.02305   2.02540
 Alpha virt. eigenvalues --    2.07659   2.08293   2.10006   2.13257   2.14097
 Alpha virt. eigenvalues --    2.15168   2.19244   2.21350   2.23911   2.24514
 Alpha virt. eigenvalues --    2.28799   2.31500   2.32407   2.34404   2.37223
 Alpha virt. eigenvalues --    2.39859   2.41292   2.50281   2.52657   2.55575
 Alpha virt. eigenvalues --    2.62271   2.62385   2.67519   2.71666   2.78389
 Alpha virt. eigenvalues --    2.79208   2.80874   2.85445   2.86504   2.94263
 Alpha virt. eigenvalues --    2.97622   2.97890   3.08148   3.12279   3.17705
 Alpha virt. eigenvalues --    3.35827   3.44348   3.59359   3.59989   3.83084
 Alpha virt. eigenvalues --    3.85112   3.90229   4.07447   4.19771   4.51439
          Condensed to atoms (all electrons):
               1          2          3          4          5          6
     1  C    6.204850  -0.615893   0.487031  -0.824833   0.817969  -0.552546
     2  C   -0.615893   6.308687  -0.712686   0.759041  -1.071643   0.817957
     3  C    0.487031  -0.712686   6.108670  -0.563039   0.759058  -0.824827
     4  C   -0.824833   0.759041  -0.563039   6.108670  -0.712696   0.487030
     5  C    0.817969  -1.071643   0.759058  -0.712696   6.308700  -0.615889
     6  C   -0.552546   0.817957  -0.824827   0.487030  -0.615889   6.204826
     7  H   -0.142995   0.122132  -0.088591   0.066273  -0.129645   0.195936
     8  H    0.196257  -0.145919   0.031061  -0.078110   0.088387  -0.082937
     9  H   -0.082939   0.088390  -0.078114   0.031065  -0.145915   0.196261
    10  H    0.195931  -0.129644   0.066271  -0.088588   0.122127  -0.142991
    11  O   -0.038075  -0.085399   0.049101   0.049140  -0.085423  -0.038058
    12  H    0.027580  -0.054182   0.133858   0.025883   0.207548  -0.040705
    13  H   -0.040705   0.207542   0.025899   0.133856  -0.054181   0.027580
               7          8          9         10         11         12
     1  C   -0.142995   0.196257  -0.082939   0.195931  -0.038075   0.027580
     2  C    0.122132  -0.145919   0.088390  -0.129644  -0.085399  -0.054182
     3  C   -0.088591   0.031061  -0.078114   0.066271   0.049101   0.133858
     4  C    0.066273  -0.078110   0.031065  -0.088588   0.049140   0.025883
     5  C   -0.129645   0.088387  -0.145915   0.122127  -0.085423   0.207548
     6  C    0.195936  -0.082937   0.196261  -0.142991  -0.038058  -0.040705
     7  H    1.493297  -0.065140  -0.009168  -0.073589   0.001862   0.003610
     8  H   -0.065140   1.466900   0.009418  -0.009168   0.016165  -0.005112
     9  H   -0.009168   0.009418   1.466882  -0.065140   0.016165  -0.047342
    10  H   -0.073589  -0.009168  -0.065140   1.493300   0.001862  -0.006218
    11  O    0.001862   0.016165   0.016165   0.001862   9.229074  -0.083627
    12  H    0.003610  -0.005112  -0.047342  -0.006218  -0.083627   1.124680
    13  H   -0.006218  -0.047343  -0.005112   0.003609  -0.083626  -0.016483
              13
     1  C   -0.040705
     2  C    0.207542
     3  C    0.025899
     4  C    0.133856
     5  C   -0.054181
     6  C    0.027580
     7  H   -0.006218
     8  H   -0.047343
     9  H   -0.005112
    10  H    0.003609
    11  O   -0.083626
    12  H   -0.016483
    13  H    1.124655
 Mulliken charges:
               1
     1  C    0.368367
     2  C    0.511616
     3  C    0.606308
     4  C    0.606306
     5  C    0.511603
     6  C    0.368362
     7  H   -0.367762
     8  H   -0.374460
     9  H   -0.374452
    10  H   -0.367763
    11  O   -0.949163
    12  H   -0.269490
    13  H   -0.269473
 Sum of Mulliken charges =   0.00000
 Mulliken charges with hydrogens summed into heavy atoms:
               1
     1  C    0.000605
     2  C    0.137156
     3  C    0.336835
     4  C    0.336816
     5  C    0.137152
     6  C    0.000599
    11  O   -0.949163
 Electronic spatial extent (au):  <R**2>=            590.4495
 Charge=              0.0000 electrons
 Dipole moment (field-independent basis, Debye):
    X=             -0.3200    Y=              0.0000    Z=             -1.7958  Tot=              1.8241
 Quadrupole moment (field-independent basis, Debye-Ang):
   XX=            -38.0786   YY=            -36.9845   ZZ=            -46.3293
   XY=              0.0000   XZ=             -3.4233   YZ=              0.0000
 Traceless Quadrupole moment (field-independent basis, Debye-Ang):
   XX=              2.3855   YY=              3.4796   ZZ=             -5.8651
   XY=              0.0000   XZ=             -3.4233   YZ=              0.0000
 Octapole moment (field-independent basis, Debye-Ang**2):
  XXX=              1.9638  YYY=              0.0000  ZZZ=              2.7084  XYY=              1.6602
  XXY=              0.0000  XXZ=             -2.1976  XZZ=              3.6432  YZZ=              0.0000
  YYZ=             -6.3236  XYZ=              0.0000
 Hexadecapole moment (field-independent basis, Debye-Ang**3):
 XXXX=           -351.6279 YYYY=           -330.0294 ZZZZ=            -94.6624 XXXY=             -0.0002
 XXXZ=            -12.8991 YYYX=             -0.0001 YYYZ=             -0.0001 ZZZX=              3.8810
 ZZZY=             -0.0001 XXYY=           -107.0403 XXZZ=            -83.3360 YYZZ=            -73.0713
 XXYZ=              0.0000 YYXZ=             -0.7049 ZZXY=              0.0000
 N-N= 2.778012873845D+02 E-N=-1.269285157116D+03  KE= 3.047733715456D+02
 1\1\GINC-QC0019\SP\RMP2-FC\Aug-CC-pVDZ\C6H6O1\ELIOT\05-Oct-2018\0\\# m
 p2/aug-cc-pvdz\\ts-bp86.log\\0,1\C,0,-1.4209,0.70581,0.16632\C,0,-0.30
 645,1.45966,-0.24861\C,0,0.99622,0.93864,-0.22529\C,0,0.99622,-0.93864
 ,-0.2253\C,0,-0.30645,-1.45966,-0.24861\C,0,-1.4209,-0.70581,0.16632\H
 ,0,-2.38948,1.2188,0.28786\H,0,-0.45767,2.45469,-0.70013\H,0,-0.45767,
 -2.45469,-0.70014\H,0,-2.38948,-1.2188,0.28786\O,0,1.34735,0.,0.74899\
 H,0,1.8445,-1.43074,-0.73815\H,0,1.8445,1.43074,-0.73815\\Version=ES64
 L-G09RevE.01\State=1-A\HF=-305.4968388\MP2=-306.5277268\RMSD=8.231e-09
 \PG=C01 [X(C6H6O1)]\\@


 THERE'S NOTHING SO GREAT AS THE GREAT OUTDOORS.

                                       -- ZIGGY
 Job cpu time:       0 days  0 hours  4 minutes 11.1 seconds.
 File lengths (MBytes):  RWF=     27 Int=      0 D2E=      0 Chk=      4 Scr=      1
 Normal termination of Gaussian 09 at Fri Oct  5 17:25:52 2018.
