 Entering Gaussian System, Link 0=/home/eliot/software/g09E01/g09
 Initial command:
 /home/eliot/software/g09E01/l1.exe "/tmp/Gau-11651.inp" -scrdir="/tmp/"
 Entering Link 1 = /home/eliot/software/g09E01/l1.exe PID=     11653.
  
 Copyright (c) 1988,1990,1992,1993,1995,1998,2003,2009,2015,
            Gaussian, Inc.  All Rights Reserved.
  
 This is part of the Gaussian(R) 09 program.  It is based on
 the Gaussian(R) 03 system (copyright 2003, Gaussian, Inc.),
 the Gaussian(R) 98 system (copyright 1998, Gaussian, Inc.),
 the Gaussian(R) 94 system (copyright 1995, Gaussian, Inc.),
 the Gaussian 92(TM) system (copyright 1992, Gaussian, Inc.),
 the Gaussian 90(TM) system (copyright 1990, Gaussian, Inc.),
 the Gaussian 88(TM) system (copyright 1988, Gaussian, Inc.),
 the Gaussian 86(TM) system (copyright 1986, Carnegie Mellon
 University), and the Gaussian 82(TM) system (copyright 1983,
 Carnegie Mellon University). Gaussian is a federally registered
 trademark of Gaussian, Inc.
  
 This software contains proprietary and confidential information,
 including trade secrets, belonging to Gaussian, Inc.
  
 This software is provided under written license and may be
 used, copied, transmitted, or stored only in accord with that
 written license.
  
 The following legend is applicable only to US Government
 contracts under FAR:
  
                    RESTRICTED RIGHTS LEGEND
  
 Use, reproduction and disclosure by the US Government is
 subject to restrictions as set forth in subparagraphs (a)
 and (c) of the Commercial Computer Software - Restricted
 Rights clause in FAR 52.227-19.
  
 Gaussian, Inc.
 340 Quinnipiac St., Bldg. 40, Wallingford CT 06492
  
  
 ---------------------------------------------------------------
 Warning -- This program may not be used in any manner that
 competes with the business of Gaussian, Inc. or will provide
 assistance to any competitor of Gaussian, Inc.  The licensee
 of this program is prohibited from giving any competitor of
 Gaussian, Inc. access to this program.  By using this program,
 the user acknowledges that Gaussian, Inc. is engaged in the
 business of creating and licensing software in the field of
 computational chemistry and represents and warrants to the
 licensee that it is not a competitor of Gaussian, Inc. and that
 it will not use this program in any manner prohibited above.
 ---------------------------------------------------------------
  

 Cite this work as:
 Gaussian 09, Revision E.01,
 M. J. Frisch, G. W. Trucks, H. B. Schlegel, G. E. Scuseria, 
 M. A. Robb, J. R. Cheeseman, G. Scalmani, V. Barone, B. Mennucci, 
 G. A. Petersson, H. Nakatsuji, M. Caricato, X. Li, H. P. Hratchian, 
 A. F. Izmaylov, J. Bloino, G. Zheng, J. L. Sonnenberg, M. Hada, 
 M. Ehara, K. Toyota, R. Fukuda, J. Hasegawa, M. Ishida, T. Nakajima, 
 Y. Honda, O. Kitao, H. Nakai, T. Vreven, J. A. Montgomery, Jr., 
 J. E. Peralta, F. Ogliaro, M. Bearpark, J. J. Heyd, E. Brothers, 
 K. N. Kudin, V. N. Staroverov, T. Keith, R. Kobayashi, J. Normand, 
 K. Raghavachari, A. Rendell, J. C. Burant, S. S. Iyengar, J. Tomasi, 
 M. Cossi, N. Rega, J. M. Millam, M. Klene, J. E. Knox, J. B. Cross, 
 V. Bakken, C. Adamo, J. Jaramillo, R. Gomperts, R. E. Stratmann, 
 O. Yazyev, A. J. Austin, R. Cammi, C. Pomelli, J. W. Ochterski, 
 R. L. Martin, K. Morokuma, V. G. Zakrzewski, G. A. Voth, 
 P. Salvador, J. J. Dannenberg, S. Dapprich, A. D. Daniels, 
 O. Farkas, J. B. Foresman, J. V. Ortiz, J. Cioslowski, 
 and D. J. Fox, Gaussian, Inc., Wallingford CT, 2013.
 
 ******************************************
 Gaussian 09:  ES64L-G09RevE.01 30-Nov-2015
                 2-Oct-2018 
 ******************************************
 %nproc=4
 Will use up to    4 processors via shared memory.
 -------------------------------------
 # opt=(ts, calcfc, noeigen) b3lyp svp
 -------------------------------------
 1/5=1,10=4,11=1,14=-1,18=20,26=3,38=1/1,3;
 2/9=110,12=2,17=6,18=5,40=1/2;
 3/5=18,7=101,11=2,16=1,25=1,30=1,71=2,74=-5,140=1/1,2,3;
 4//1;
 5/5=2,38=5/2;
 8/6=4,10=90,11=11/1;
 11/6=1,8=1,9=11,15=111,16=1/1,2,10;
 10/6=1,13=1/2;
 6/7=2,8=2,9=2,10=2,28=1/1;
 7/10=1,18=20,25=1/1,2,3,16;
 1/5=1,10=4,11=1,14=-1,18=20,26=3/3(2);
 2/9=110/2;
 99//99;
 2/9=110/2;
 3/5=18,7=101,11=2,16=1,25=1,30=1,71=1,74=-5/1,2,3;
 4/5=5,16=3,69=1/1;
 5/5=2,38=5/2;
 7//1,2,3,16;
 1/5=1,11=1,14=-1,18=20,26=3/3(-5);
 2/9=110/2;
 6/7=2,8=2,9=2,10=2,19=2,28=1/1;
 99/9=1/99;
 -------------------
 Title Card Required
 -------------------
 Symbolic Z-matrix:
 Charge =  0 Multiplicity = 1
 C                     1.41454  -0.70485   0.16173 
 C                     0.30758  -1.45033  -0.23899 
 C                    -0.98979  -0.91278  -0.23485 
 C                    -0.99      0.91249  -0.2351 
 C                     0.30714   1.45036  -0.23898 
 C                     1.41429   0.70521   0.16183 
 H                     2.37688  -1.21276   0.27469 
 H                     0.44942  -2.45032  -0.65985 
 H                     0.44867   2.45048  -0.65966 
 H                     2.37645   1.21343   0.2749 
 O                    -1.34711  -0.00008   0.74999 
 H                    -1.82871   1.40524  -0.74219 
 H                    -1.82837  -1.40605  -0.74169 
 

 GradGradGradGradGradGradGradGradGradGradGradGradGradGradGradGradGradGrad
 Berny optimization.
 Initialization pass.
                           ----------------------------
                           !    Initial Parameters    !
                           ! (Angstroms and Degrees)  !
 --------------------------                            --------------------------
 ! Name  Definition              Value          Derivative Info.                !
 --------------------------------------------------------------------------------
 ! R1    R(1,2)                  1.3934         calculate D2E/DX2 analytically  !
 ! R2    R(1,6)                  1.4101         calculate D2E/DX2 analytically  !
 ! R3    R(1,7)                  1.094          calculate D2E/DX2 analytically  !
 ! R4    R(2,3)                  1.4043         calculate D2E/DX2 analytically  !
 ! R5    R(2,8)                  1.0942         calculate D2E/DX2 analytically  !
 ! R6    R(3,4)                  1.8253         calculate D2E/DX2 analytically  !
 ! R7    R(3,11)                 1.3895         calculate D2E/DX2 analytically  !
 ! R8    R(3,13)                 1.097          calculate D2E/DX2 analytically  !
 ! R9    R(4,5)                  1.4042         calculate D2E/DX2 analytically  !
 ! R10   R(4,11)                 1.3895         calculate D2E/DX2 analytically  !
 ! R11   R(4,12)                 1.097          calculate D2E/DX2 analytically  !
 ! R12   R(5,6)                  1.3934         calculate D2E/DX2 analytically  !
 ! R13   R(5,9)                  1.0942         calculate D2E/DX2 analytically  !
 ! R14   R(6,10)                 1.094          calculate D2E/DX2 analytically  !
 ! A1    A(2,1,6)              122.3354         calculate D2E/DX2 analytically  !
 ! A2    A(2,1,7)              118.6928         calculate D2E/DX2 analytically  !
 ! A3    A(6,1,7)              117.6727         calculate D2E/DX2 analytically  !
 ! A4    A(1,2,3)              121.8886         calculate D2E/DX2 analytically  !
 ! A5    A(1,2,8)              119.774          calculate D2E/DX2 analytically  !
 ! A6    A(3,2,8)              118.0807         calculate D2E/DX2 analytically  !
 ! A7    A(2,3,4)              112.5123         calculate D2E/DX2 analytically  !
 ! A8    A(2,3,11)             119.4133         calculate D2E/DX2 analytically  !
 ! A9    A(2,3,13)             122.1895         calculate D2E/DX2 analytically  !
 ! A10   A(4,3,13)             116.712          calculate D2E/DX2 analytically  !
 ! A11   A(11,3,13)            115.2304         calculate D2E/DX2 analytically  !
 ! A12   A(3,4,5)              112.5155         calculate D2E/DX2 analytically  !
 ! A13   A(3,4,12)             116.7011         calculate D2E/DX2 analytically  !
 ! A14   A(5,4,11)             119.4019         calculate D2E/DX2 analytically  !
 ! A15   A(5,4,12)             122.2024         calculate D2E/DX2 analytically  !
 ! A16   A(11,4,12)            115.2283         calculate D2E/DX2 analytically  !
 ! A17   A(4,5,6)              121.8917         calculate D2E/DX2 analytically  !
 ! A18   A(4,5,9)              118.077          calculate D2E/DX2 analytically  !
 ! A19   A(6,5,9)              119.7751         calculate D2E/DX2 analytically  !
 ! A20   A(1,6,5)              122.3356         calculate D2E/DX2 analytically  !
 ! A21   A(1,6,10)             117.6721         calculate D2E/DX2 analytically  !
 ! A22   A(5,6,10)             118.6917         calculate D2E/DX2 analytically  !
 ! D1    D(6,1,2,3)            -21.9304         calculate D2E/DX2 analytically  !
 ! D2    D(6,1,2,8)            152.1363         calculate D2E/DX2 analytically  !
 ! D3    D(7,1,2,3)            171.3963         calculate D2E/DX2 analytically  !
 ! D4    D(7,1,2,8)            -14.537          calculate D2E/DX2 analytically  !
 ! D5    D(2,1,6,5)             -0.0102         calculate D2E/DX2 analytically  !
 ! D6    D(2,1,6,10)          -166.8045         calculate D2E/DX2 analytically  !
 ! D7    D(7,1,6,5)            166.7919         calculate D2E/DX2 analytically  !
 ! D8    D(7,1,6,10)            -0.0024         calculate D2E/DX2 analytically  !
 ! D9    D(1,2,3,4)             19.9876         calculate D2E/DX2 analytically  !
 ! D10   D(1,2,3,11)           -34.3844         calculate D2E/DX2 analytically  !
 ! D11   D(1,2,3,13)           166.6929         calculate D2E/DX2 analytically  !
 ! D12   D(8,2,3,4)           -154.1755         calculate D2E/DX2 analytically  !
 ! D13   D(8,2,3,11)           151.4525         calculate D2E/DX2 analytically  !
 ! D14   D(8,2,3,13)            -7.4702         calculate D2E/DX2 analytically  !
 ! D15   D(2,3,4,5)             -0.0179         calculate D2E/DX2 analytically  !
 ! D16   D(2,3,4,12)           148.658          calculate D2E/DX2 analytically  !
 ! D17   D(13,3,4,5)          -148.6809         calculate D2E/DX2 analytically  !
 ! D18   D(13,3,4,12)           -0.005          calculate D2E/DX2 analytically  !
 ! D19   D(3,4,5,6)            -19.9646         calculate D2E/DX2 analytically  !
 ! D20   D(3,4,5,9)            154.2042         calculate D2E/DX2 analytically  !
 ! D21   D(11,4,5,6)            34.4052         calculate D2E/DX2 analytically  !
 ! D22   D(11,4,5,9)          -151.4261         calculate D2E/DX2 analytically  !
 ! D23   D(12,4,5,6)          -166.6749         calculate D2E/DX2 analytically  !
 ! D24   D(12,4,5,9)             7.4938         calculate D2E/DX2 analytically  !
 ! D25   D(4,5,6,1)             21.9343         calculate D2E/DX2 analytically  !
 ! D26   D(4,5,6,10)          -171.4003         calculate D2E/DX2 analytically  !
 ! D27   D(9,5,6,1)           -152.1378         calculate D2E/DX2 analytically  !
 ! D28   D(9,5,6,10)            14.5276         calculate D2E/DX2 analytically  !
 --------------------------------------------------------------------------------
 Trust Radius=3.00D-01 FncErr=1.00D-07 GrdErr=1.00D-06
 Number of steps in this run=     74 maximum allowed number of steps=    100.
 Search for a saddle point of order  1.
 GradGradGradGradGradGradGradGradGradGradGradGradGradGradGradGradGradGrad

                          Input orientation:                          
 ---------------------------------------------------------------------
 Center     Atomic      Atomic             Coordinates (Angstroms)
 Number     Number       Type             X           Y           Z
 ---------------------------------------------------------------------
      1          6           0        1.414538   -0.704845    0.161729
      2          6           0        0.307584   -1.450325   -0.238987
      3          6           0       -0.989790   -0.912777   -0.234846
      4          6           0       -0.989997    0.912485   -0.235099
      5          6           0        0.307138    1.450360   -0.238983
      6          6           0        1.414289    0.705206    0.161828
      7          1           0        2.376877   -1.212759    0.274693
      8          1           0        0.449417   -2.450323   -0.659846
      9          1           0        0.448672    2.450481   -0.659655
     10          1           0        2.376447    1.213431    0.274904
     11          8           0       -1.347114   -0.000081    0.749992
     12          1           0       -1.828710    1.405237   -0.742192
     13          1           0       -1.828366   -1.406052   -0.741688
 ---------------------------------------------------------------------
                    Distance matrix (angstroms):
                    1          2          3          4          5
     1  C    0.000000
     2  C    1.393435   0.000000
     3  C    2.445670   1.404334   0.000000
     4  C    2.924896   2.695664   1.825262   0.000000
     5  C    2.455975   2.900685   2.695636   1.404238   0.000000
     6  C    1.410051   2.455965   2.924862   2.445630   1.393444
     7  H    1.093999   2.145292   3.418196   4.014024   3.411728
     8  H    2.157113   1.094182   2.148485   3.682499   3.925901
     9  H    3.400537   3.925959   3.682545   2.148359   1.094184
    10  H    2.148921   3.411726   4.013995   3.418131   2.145287
    11  O    2.910235   2.412325   1.389460   1.389501   2.412136
    12  H    3.973434   3.601555   2.516819   1.096990   2.194790
    13  H    3.438645   2.194755   1.097004   2.516964   3.601691
                    6          7          8          9         10
     6  C    0.000000
     7  H    2.148931   0.000000
     8  H    3.400513   2.473869   0.000000
     9  H    2.157136   4.243855   4.900804   0.000000
    10  H    1.093996   2.426190   4.243854   2.473865   0.000000
    11  O    2.910105   3.945200   3.349456   3.349210   3.945026
    12  H    3.438654   5.057165   4.479061   2.507153   4.330660
    13  H    3.973482   4.330642   2.507089   4.479339   5.057233
                   11         12         13
    11  O    0.000000
    12  H    2.105580   0.000000
    13  H    2.105580   2.811289   0.000000
 Stoichiometry    C6H6O
 Framework group  C1[X(C6H6O)]
 Deg. of freedom    33
 Full point group                 C1      NOp   1
 Largest Abelian subgroup         C1      NOp   1
 Largest concise Abelian subgroup C1      NOp   1
                         Standard orientation:                         
 ---------------------------------------------------------------------
 Center     Atomic      Atomic             Coordinates (Angstroms)
 Number     Number       Type             X           Y           Z
 ---------------------------------------------------------------------
      1          6           0        1.414538   -0.704844    0.161729
      2          6           0        0.307585   -1.450325   -0.238987
      3          6           0       -0.989789   -0.912777   -0.234846
      4          6           0       -0.989997    0.912485   -0.235099
      5          6           0        0.307137    1.450360   -0.238983
      6          6           0        1.414289    0.705207    0.161828
      7          1           0        2.376878   -1.212758    0.274693
      8          1           0        0.449418   -2.450323   -0.659846
      9          1           0        0.448671    2.450481   -0.659655
     10          1           0        2.376446    1.213432    0.274904
     11          8           0       -1.347114   -0.000082    0.749992
     12          1           0       -1.828711    1.405236   -0.742192
     13          1           0       -1.828365   -1.406053   -0.741688
 ---------------------------------------------------------------------
 Rotational constants (GHZ):      4.3658685      3.7236487      2.2675579
 Standard basis: SVP (5D, 7F)
 There are   135 symmetry adapted cartesian basis functions of A   symmetry.
 There are   128 symmetry adapted basis functions of A   symmetry.
   128 basis functions,   217 primitive gaussians,   135 cartesian basis functions
    25 alpha electrons       25 beta electrons
       nuclear repulsion energy       279.6647855719 Hartrees.
 NAtoms=   13 NActive=   13 NUniq=   13 SFac= 1.00D+00 NAtFMM=   60 NAOKFM=F Big=F
 Integral buffers will be    131072 words long.
 Raffenetti 2 integral format.
 Two-electron integral symmetry is turned on.
 One-electron integrals computed using PRISM.
 NBasis=   128 RedAO= T EigKep=  5.07D-04  NBF=   128
 NBsUse=   128 1.00D-06 EigRej= -1.00D+00 NBFU=   128
 ExpMin= 1.22D-01 ExpMax= 2.27D+03 ExpMxC= 3.41D+02 IAcc=1 IRadAn=         1 AccDes= 0.00D+00
 Harris functional with IExCor=  402 and IRadAn=       1 diagonalized for initial guess.
 HarFok:  IExCor=  402 AccDes= 0.00D+00 IRadAn=         1 IDoV= 1 UseB2=F ITyADJ=14
 ICtDFT=  3500011 ScaDFX=  1.000000  1.000000  1.000000  1.000000
 FoFCou: FMM=F IPFlag=           0 FMFlag=      100000 FMFlg1=           0
         NFxFlg=           0 DoJE=T BraDBF=F KetDBF=T FulRan=T
         wScrn=  0.000000 ICntrl=     500 IOpCl=  0 I1Cent=   200000004 NGrid=           0
         NMat0=    1 NMatS0=      1 NMatT0=    0 NMatD0=    1 NMtDS0=    0 NMtDT0=    0
 Petite list used in FoFCou.
 Requested convergence on RMS density matrix=1.00D-08 within 128 cycles.
 Requested convergence on MAX density matrix=1.00D-06.
 Requested convergence on             energy=1.00D-06.
 No special actions if energy rises.
 Integral accuracy reduced to 1.0D-05 until final iterations.
 Initial convergence to 1.0D-05 achieved.  Increase integral accuracy.
 SCF Done:  E(RB3LYP) =  -307.163672226     A.U. after   14 cycles
            NFock= 14  Conv=0.56D-08     -V/T= 2.0103
 DoSCS=F DFT=T ScalE2(SS,OS)=  1.000000  1.000000
 Range of M.O.s used for correlation:     1   128
 NBasis=   128 NAE=    25 NBE=    25 NFC=     0 NFV=     0
 NROrb=    128 NOA=    25 NOB=    25 NVA=   103 NVB=   103
 Symmetrizing basis deriv contribution to polar:
 IMax=3 JMax=2 DiffMx= 0.00D+00
 G2DrvN: will do    14 centers at a time, making    1 passes.
 Calling FoFCou, ICntrl=  3107 FMM=F I1Cent=   0 AccDes= 0.00D+00.
 End of G2Drv F.D. properties file   721 does not exist.
 End of G2Drv F.D. properties file   722 does not exist.
 End of G2Drv F.D. properties file   788 does not exist.
          IDoAtm=1111111111111
          Differentiating once with respect to nuclear coordinates.
          There are    42 degrees of freedom in the 1st order CPHF.  IDoFFX=6 NUNeed=     0.
     36 vectors produced by pass  0 Test12= 6.13D-15 2.38D-09 XBig12= 1.29D-01 1.49D-01.
 AX will form    36 AO Fock derivatives at one time.
     36 vectors produced by pass  1 Test12= 6.13D-15 2.38D-09 XBig12= 3.07D-02 6.74D-02.
     36 vectors produced by pass  2 Test12= 6.13D-15 2.38D-09 XBig12= 3.08D-04 2.70D-03.
     36 vectors produced by pass  3 Test12= 6.13D-15 2.38D-09 XBig12= 1.18D-06 1.55D-04.
     36 vectors produced by pass  4 Test12= 6.13D-15 2.38D-09 XBig12= 1.74D-09 6.05D-06.
     31 vectors produced by pass  5 Test12= 6.13D-15 2.38D-09 XBig12= 1.70D-12 2.25D-07.
      7 vectors produced by pass  6 Test12= 6.13D-15 2.38D-09 XBig12= 1.69D-15 6.50D-09.
 InvSVY:  IOpt=1 It=  1 EMax= 2.66D-15
 Solved reduced A of dimension   218 with    36 vectors.
 End of Minotr F.D. properties file   721 does not exist.
 End of Minotr F.D. properties file   722 does not exist.
 End of Minotr F.D. properties file   788 does not exist.

 **********************************************************************

            Population analysis using the SCF density.

 **********************************************************************

 Orbital symmetries:
       Occupied  (A) (A) (A) (A) (A) (A) (A) (A) (A) (A) (A) (A)
                 (A) (A) (A) (A) (A) (A) (A) (A) (A) (A) (A) (A)
                 (A)
       Virtual   (A) (A) (A) (A) (A) (A) (A) (A) (A) (A) (A) (A)
                 (A) (A) (A) (A) (A) (A) (A) (A) (A) (A) (A) (A)
                 (A) (A) (A) (A) (A) (A) (A) (A) (A) (A) (A) (A)
                 (A) (A) (A) (A) (A) (A) (A) (A) (A) (A) (A) (A)
                 (A) (A) (A) (A) (A) (A) (A) (A) (A) (A) (A) (A)
                 (A) (A) (A) (A) (A) (A) (A) (A) (A) (A) (A) (A)
                 (A) (A) (A) (A) (A) (A) (A) (A) (A) (A) (A) (A)
                 (A) (A) (A) (A) (A) (A) (A) (A) (A) (A) (A) (A)
                 (A) (A) (A) (A) (A) (A) (A)
 The electronic state is 1-A.
 Alpha  occ. eigenvalues --  -19.15834 -10.25707 -10.25705 -10.19642 -10.19611
 Alpha  occ. eigenvalues --  -10.19396 -10.19391  -1.08397  -0.81722  -0.76477
 Alpha  occ. eigenvalues --   -0.68716  -0.64138  -0.57097  -0.53411  -0.52283
 Alpha  occ. eigenvalues --   -0.47328  -0.46013  -0.45222  -0.42273  -0.38301
 Alpha  occ. eigenvalues --   -0.36888  -0.34560  -0.28724  -0.24747  -0.24327
 Alpha virt. eigenvalues --   -0.02525  -0.00907   0.05634   0.08686   0.09369
 Alpha virt. eigenvalues --    0.10214   0.13024   0.14156   0.15591   0.17025
 Alpha virt. eigenvalues --    0.24371   0.29191   0.29924   0.30622   0.37563
 Alpha virt. eigenvalues --    0.40746   0.40830   0.44081   0.44150   0.45066
 Alpha virt. eigenvalues --    0.45105   0.48633   0.49436   0.50074   0.53062
 Alpha virt. eigenvalues --    0.55506   0.57198   0.59842   0.60461   0.62707
 Alpha virt. eigenvalues --    0.63196   0.64616   0.66906   0.68353   0.70898
 Alpha virt. eigenvalues --    0.71379   0.72488   0.74474   0.75436   0.75804
 Alpha virt. eigenvalues --    0.83817   0.86742   0.94271   0.96700   1.04354
 Alpha virt. eigenvalues --    1.08625   1.14688   1.21717   1.27842   1.29287
 Alpha virt. eigenvalues --    1.30383   1.33010   1.33323   1.42522   1.43993
 Alpha virt. eigenvalues --    1.45850   1.63652   1.68905   1.69331   1.70820
 Alpha virt. eigenvalues --    1.71178   1.72499   1.74045   1.74899   1.77669
 Alpha virt. eigenvalues --    1.78931   1.81616   1.87110   1.88252   1.92140
 Alpha virt. eigenvalues --    1.93565   1.96430   1.99279   2.00063   2.02411
 Alpha virt. eigenvalues --    2.04360   2.07817   2.15446   2.16491   2.20642
 Alpha virt. eigenvalues --    2.23554   2.34260   2.34310   2.39298   2.39325
 Alpha virt. eigenvalues --    2.46249   2.54694   2.55404   2.64942   2.65557
 Alpha virt. eigenvalues --    2.72022   2.73424   2.78877   2.84986   2.91569
 Alpha virt. eigenvalues --    2.94264   2.99701   3.04355   3.14957   3.23506
 Alpha virt. eigenvalues --    3.32764   3.43128   3.57831
          Condensed to atoms (all electrons):
               1          2          3          4          5          6
     1  C    4.915897   0.378890   0.029594  -0.065300   0.000343   0.410761
     2  C    0.378890   5.025205   0.370175  -0.004824  -0.040750   0.000335
     3  C    0.029594   0.370175   4.895357   0.046098  -0.004851  -0.065285
     4  C   -0.065300  -0.004824   0.046098   4.895358   0.370259   0.029576
     5  C    0.000343  -0.040750  -0.004851   0.370259   5.025033   0.378947
     6  C    0.410761   0.000335  -0.065285   0.029576   0.378947   4.915810
     7  H    0.416154  -0.059830   0.012461  -0.000831   0.013820  -0.058522
     8  H   -0.053950   0.416677  -0.058625   0.004619  -0.001952   0.012112
     9  H    0.012112  -0.001954   0.004622  -0.058651   0.416702  -0.053956
    10  H   -0.058526   0.013823  -0.000831   0.012465  -0.059837   0.416157
    11  O    0.002011  -0.060846   0.268622   0.268581  -0.060848   0.002009
    12  H    0.001043  -0.002915   0.001417   0.397770  -0.059131   0.010128
    13  H    0.010131  -0.059153   0.397783   0.001411  -0.002910   0.001042
               7          8          9         10         11         12
     1  C    0.416154  -0.053950   0.012112  -0.058526   0.002011   0.001043
     2  C   -0.059830   0.416677  -0.001954   0.013823  -0.060846  -0.002915
     3  C    0.012461  -0.058625   0.004622  -0.000831   0.268622   0.001417
     4  C   -0.000831   0.004619  -0.058651   0.012465   0.268581   0.397770
     5  C    0.013820  -0.001952   0.416702  -0.059837  -0.060848  -0.059131
     6  C   -0.058522   0.012112  -0.053956   0.416157   0.002009   0.010128
     7  H    0.712273  -0.012863  -0.000299  -0.015630  -0.000121   0.000016
     8  H   -0.012863   0.701133   0.000043  -0.000299   0.003464   0.000084
     9  H   -0.000299   0.000043   0.701135  -0.012864   0.003465  -0.007130
    10  H   -0.015630  -0.000299  -0.012864   0.712281  -0.000121  -0.000371
    11  O   -0.000121   0.003464   0.003465  -0.000121   7.925253  -0.038135
    12  H    0.000016   0.000084  -0.007130  -0.000371  -0.038135   0.679564
    13  H   -0.000371  -0.007129   0.000084   0.000016  -0.038139  -0.000010
              13
     1  C    0.010131
     2  C   -0.059153
     3  C    0.397783
     4  C    0.001411
     5  C   -0.002910
     6  C    0.001042
     7  H   -0.000371
     8  H   -0.007129
     9  H    0.000084
    10  H    0.000016
    11  O   -0.038139
    12  H   -0.000010
    13  H    0.679586
 Mulliken charges:
               1
     1  C    0.000843
     2  C    0.025167
     3  C    0.103462
     4  C    0.103469
     5  C    0.025174
     6  C    0.000886
     7  H   -0.006257
     8  H   -0.003312
     9  H   -0.003309
    10  H   -0.006262
    11  O   -0.275196
    12  H    0.017671
    13  H    0.017662
 Sum of Mulliken charges =   0.00000
 Mulliken charges with hydrogens summed into heavy atoms:
               1
     1  C   -0.005414
     2  C    0.021855
     3  C    0.121124
     4  C    0.121140
     5  C    0.021866
     6  C   -0.005376
    11  O   -0.275196
 APT charges:
               1
     1  C   -0.488571
     2  C   -0.494480
     3  C   -0.385941
     4  C   -0.385776
     5  C   -0.494591
     6  C   -0.488574
     7  H    0.491099
     8  H    0.469429
     9  H    0.469426
    10  H    0.491086
    11  O   -0.091296
    12  H    0.454092
    13  H    0.454096
 Sum of APT charges =   0.00000
 APT charges with hydrogens summed into heavy atoms:
               1
     1  C    0.002528
     2  C   -0.025051
     3  C    0.068155
     4  C    0.068316
     5  C   -0.025165
     6  C    0.002513
    11  O   -0.091296
 Electronic spatial extent (au):  <R**2>=            581.9625
 Charge=              0.0000 electrons
 Dipole moment (field-independent basis, Debye):
    X=              0.3642    Y=              0.0000    Z=             -1.6174  Tot=              1.6579
 Quadrupole moment (field-independent basis, Debye-Ang):
   XX=            -38.1436   YY=            -36.6599   ZZ=            -44.1825
   XY=              0.0000   XZ=              2.8762   YZ=              0.0003
 Traceless Quadrupole moment (field-independent basis, Debye-Ang):
   XX=              1.5184   YY=              3.0021   ZZ=             -4.5204
   XY=              0.0000   XZ=              2.8762   YZ=              0.0003
 Octapole moment (field-independent basis, Debye-Ang**2):
  XXX=             -1.7565  YYY=              0.0004  ZZZ=              2.6716  XYY=             -2.0796
  XXY=             -0.0003  XXZ=             -1.8734  XZZ=             -2.7513  YZZ=              0.0000
  YYZ=             -4.0190  XYZ=              0.0020
 Hexadecapole moment (field-independent basis, Debye-Ang**3):
 XXXX=           -348.4304 YYYY=           -317.2808 ZZZZ=            -82.8358 XXXY=             -0.0010
 XXXZ=              7.9373 YYYX=              0.0033 YYYZ=              0.0034 ZZZX=             -3.6431
 ZZZY=             -0.0007 XXYY=           -106.5644 XXZZ=            -78.6444 YYZZ=            -69.0084
 XXYZ=              0.0006 YYXZ=             -0.1474 ZZXY=             -0.0015
 N-N= 2.796647855719D+02 E-N=-1.272981806947D+03  KE= 3.040177077375D+02
  Exact polarizability:   0.000   0.000   0.000   0.000   0.000   0.000
 Approx polarizability: 128.738  -0.002 139.498  11.881   0.001  56.189
 Calling FoFJK, ICntrl=    100147 FMM=F ISym2X=0 I1Cent= 0 IOpClX= 0 NMat=1 NMatS=1 NMatT=0.
 ***** Axes restored to original set *****
 -------------------------------------------------------------------
 Center     Atomic                   Forces (Hartrees/Bohr)
 Number     Number              X              Y              Z
 -------------------------------------------------------------------
      1        6           0.000003329    0.000039633    0.000013259
      2        6           0.000005075    0.000001781    0.000015152
      3        6          -0.000004920    0.002753241   -0.000020619
      4        6          -0.000065512   -0.002806865    0.000012520
      5        6           0.000067664    0.000047176   -0.000001076
      6        6           0.000004339   -0.000035555    0.000005731
      7        1          -0.000004474   -0.000002187   -0.000005415
      8        1          -0.000009958    0.000003142    0.000004485
      9        1           0.000001806   -0.000006795   -0.000004505
     10        1          -0.000003835    0.000004404   -0.000003127
     11        8           0.000006094   -0.000012703   -0.000029649
     12        1           0.000000824    0.000004077    0.000007592
     13        1          -0.000000432    0.000010651    0.000005651
 -------------------------------------------------------------------
 Cartesian Forces:  Max     0.002806865 RMS     0.000629926
 FormGI is forming the generalized inverse of G from B-inverse, IUseBI=4.

 GradGradGradGradGradGradGradGradGradGradGradGradGradGradGradGradGradGrad
 Berny optimization.
 Internal  Forces:  Max     0.002148968 RMS     0.000304990
 Search for a saddle point.
 Step number   1 out of a maximum of   74
 All quantities printed in internal units (Hartrees-Bohrs-Radians)
 Swapping is turned off.
 Second derivative matrix not updated -- analytic derivatives used.
 ITU=  0
     Eigenvalues ---   -0.03825   0.01395   0.01504   0.01723   0.02041
     Eigenvalues ---    0.02225   0.02278   0.02459   0.02731   0.03218
     Eigenvalues ---    0.06903   0.07937   0.10308   0.11018   0.11563
     Eigenvalues ---    0.11886   0.12556   0.17559   0.18011   0.20272
     Eigenvalues ---    0.29407   0.31255   0.35235   0.35313   0.35365
     Eigenvalues ---    0.35389   0.35588   0.35671   0.35738   0.40847
     Eigenvalues ---    0.43098   0.46252   0.49910
 Eigenvectors required to have negative eigenvalues:
                          R6        D10       D21       D22       D13
   1                   -0.74662  -0.28260   0.28252   0.27917  -0.27914
                          R4        R9        R12       R1        A7
   1                    0.13522   0.13517  -0.09516  -0.09516   0.09206
 RFO step:  Lambda0=1.111041403D-04 Lambda=-3.48968902D-05.
 Linear search not attempted -- option 19 set.
 Iteration  1 RMS(Cart)=  0.00648026 RMS(Int)=  0.00003759
 Iteration  2 RMS(Cart)=  0.00003740 RMS(Int)=  0.00001884
 Iteration  3 RMS(Cart)=  0.00000000 RMS(Int)=  0.00001884
 Variable       Old X    -DE/DX   Delta X   Delta X   Delta X     New X
                                 (Linear)    (Quad)   (Total)
    R1        2.63321  -0.00008   0.00000   0.00520   0.00520   2.63841
    R2        2.66461  -0.00020   0.00000  -0.00502  -0.00501   2.65960
    R3        2.06736   0.00000   0.00000   0.00004   0.00004   2.06739
    R4        2.65381   0.00006   0.00000  -0.00708  -0.00709   2.64672
    R5        2.06770  -0.00001   0.00000   0.00004   0.00004   2.06775
    R6        3.44925  -0.00215   0.00000   0.02753   0.02748   3.47673
    R7        2.62570  -0.00031   0.00000  -0.00343  -0.00341   2.62229
    R8        2.07304  -0.00001   0.00000   0.00003   0.00003   2.07307
    R9        2.65362   0.00014   0.00000  -0.00690  -0.00690   2.64672
   R10        2.62578  -0.00031   0.00000  -0.00351  -0.00349   2.62229
   R11        2.07301   0.00000   0.00000   0.00006   0.00006   2.07307
   R12        2.63323  -0.00009   0.00000   0.00518   0.00518   2.63841
   R13        2.06771   0.00000   0.00000   0.00004   0.00004   2.06775
   R14        2.06735   0.00000   0.00000   0.00004   0.00004   2.06739
    A1        2.13516  -0.00024   0.00000   0.00016   0.00015   2.13530
    A2        2.07158   0.00011   0.00000  -0.00079  -0.00078   2.07080
    A3        2.05378   0.00011   0.00000   0.00037   0.00037   2.05415
    A4        2.12736   0.00007   0.00000   0.00126   0.00124   2.12860
    A5        2.09045  -0.00003   0.00000  -0.00113  -0.00112   2.08933
    A6        2.06090  -0.00003   0.00000  -0.00039  -0.00039   2.06051
    A7        1.96371   0.00014   0.00000  -0.00425  -0.00425   1.95946
    A8        2.08416  -0.00009   0.00000   0.00226   0.00223   2.08638
    A9        2.13261  -0.00005   0.00000   0.00198   0.00194   2.13455
   A10        2.03701  -0.00014   0.00000  -0.00097  -0.00095   2.03605
   A11        2.01115  -0.00001   0.00000   0.00099   0.00095   2.01210
   A12        1.96377   0.00015   0.00000  -0.00430  -0.00430   1.95946
   A13        2.03682  -0.00013   0.00000  -0.00079  -0.00077   2.03604
   A14        2.08396  -0.00008   0.00000   0.00247   0.00243   2.08638
   A15        2.13283  -0.00006   0.00000   0.00175   0.00172   2.13455
   A16        2.01111   0.00000   0.00000   0.00103   0.00098   2.01210
   A17        2.12741   0.00004   0.00000   0.00120   0.00118   2.12859
   A18        2.06083  -0.00001   0.00000  -0.00033  -0.00032   2.06051
   A19        2.09047  -0.00003   0.00000  -0.00115  -0.00114   2.08933
   A20        2.13516  -0.00025   0.00000   0.00015   0.00015   2.13530
   A21        2.05377   0.00011   0.00000   0.00038   0.00039   2.05415
   A22        2.07156   0.00012   0.00000  -0.00077  -0.00076   2.07080
    D1       -0.38276  -0.00011   0.00000  -0.01027  -0.01027  -0.39303
    D2        2.65528  -0.00011   0.00000  -0.01334  -0.01334   2.64194
    D3        2.99143  -0.00003   0.00000  -0.00901  -0.00901   2.98242
    D4       -0.25372  -0.00003   0.00000  -0.01208  -0.01208  -0.26580
    D5       -0.00018   0.00000   0.00000   0.00018   0.00018   0.00000
    D6       -2.91129   0.00008   0.00000   0.00144   0.00144  -2.90985
    D7        2.91107  -0.00008   0.00000  -0.00122  -0.00121   2.90985
    D8       -0.00004   0.00000   0.00000   0.00005   0.00005   0.00001
    D9        0.34885   0.00017   0.00000   0.00836   0.00834   0.35719
   D10       -0.60012  -0.00038   0.00000   0.01917   0.01920  -0.58092
   D11        2.90934   0.00006   0.00000   0.00218   0.00216   2.91150
   D12       -2.69087   0.00017   0.00000   0.01143   0.01141  -2.67946
   D13        2.64335  -0.00038   0.00000   0.02223   0.02227   2.66562
   D14       -0.13038   0.00006   0.00000   0.00524   0.00523  -0.12515
   D15       -0.00031   0.00001   0.00000   0.00031   0.00031   0.00000
   D16        2.59457  -0.00008   0.00000  -0.00460  -0.00460   2.58998
   D17       -2.59497   0.00008   0.00000   0.00499   0.00499  -2.58998
   D18       -0.00009   0.00000   0.00000   0.00008   0.00008  -0.00001
   D19       -0.34845  -0.00018   0.00000  -0.00876  -0.00874  -0.35719
   D20        2.69137  -0.00018   0.00000  -0.01194  -0.01192   2.67945
   D21        0.60048   0.00038   0.00000  -0.01953  -0.01956   0.58092
   D22       -2.64288   0.00037   0.00000  -0.02270  -0.02274  -2.66563
   D23       -2.90903  -0.00007   0.00000  -0.00248  -0.00246  -2.91149
   D24        0.13079  -0.00007   0.00000  -0.00566  -0.00564   0.12515
   D25        0.38283   0.00011   0.00000   0.01020   0.01020   0.39302
   D26       -2.99150   0.00002   0.00000   0.00907   0.00907  -2.98243
   D27       -2.65531   0.00011   0.00000   0.01338   0.01338  -2.64193
   D28        0.25355   0.00002   0.00000   0.01225   0.01225   0.26581
         Item               Value     Threshold  Converged?
 Maximum Force            0.002149     0.000450     NO 
 RMS     Force            0.000305     0.000300     NO 
 Maximum Displacement     0.024278     0.001800     NO 
 RMS     Displacement     0.006478     0.001200     NO 
 Predicted change in Energy= 3.823914D-05
 GradGradGradGradGradGradGradGradGradGradGradGradGradGradGradGradGradGrad

                          Input orientation:                          
 ---------------------------------------------------------------------
 Center     Atomic      Atomic             Coordinates (Angstroms)
 Number     Number       Type             X           Y           Z
 ---------------------------------------------------------------------
      1          6           0        1.413922   -0.703501    0.164602
      2          6           0        0.306308   -1.450634   -0.240762
      3          6           0       -0.989855   -0.920076   -0.230457
      4          6           0       -0.990133    0.919729   -0.230477
      5          6           0        0.305868    1.450686   -0.240793
      6          6           0        1.413709    0.703898    0.164588
      7          1           0        2.375828   -1.211802    0.279681
      8          1           0        0.451795   -2.445507   -0.672439
      9          1           0        0.451054    2.445589   -0.672502
     10          1           0        2.375462    1.212491    0.279650
     11          8           0       -1.344861   -0.000215    0.745975
     12          1           0       -1.829270    1.411770   -0.737627
     13          1           0       -1.828843   -1.412390   -0.737588
 ---------------------------------------------------------------------
                    Distance matrix (angstroms):
                    1          2          3          4          5
     1  C    0.000000
     2  C    1.396187   0.000000
     3  C    2.445633   1.400584   0.000000
     4  C    2.927533   2.701757   1.839805   0.000000
     5  C    2.456146   2.901321   2.701762   1.400586   0.000000
     6  C    1.407399   2.456147   2.927537   2.445633   1.396187
     7  H    1.094018   2.147281   3.416601   4.016638   3.412400
     8  H    2.158915   1.094205   2.144911   3.687724   3.922746
     9  H    3.397739   3.922743   3.687726   2.144914   1.094205
    10  H    2.146816   3.412399   4.016642   3.416602   2.147282
    11  O    2.905768   2.409092   1.387657   1.387656   2.409094
    12  H    3.975762   3.605679   2.529692   1.097021   2.192526
    13  H    3.439767   2.192525   1.097021   2.529699   3.605690
                    6          7          8          9         10
     6  C    0.000000
     7  H    2.146817   0.000000
     8  H    3.397741   2.475977   0.000000
     9  H    2.158915   4.241217   4.891097   0.000000
    10  H    1.094018   2.424293   4.241217   2.475979   0.000000
    11  O    2.905769   3.940672   3.349526   3.349530   3.940675
    12  H    3.439766   5.059732   4.481751   2.504576   4.330628
    13  H    3.975769   4.330626   2.504573   4.481760   5.059739
                   11         12         13
    11  O    0.000000
    12  H    2.104621   0.000000
    13  H    2.104623   2.824160   0.000000
 Stoichiometry    C6H6O
 Framework group  C1[X(C6H6O)]
 Deg. of freedom    33
 Full point group                 C1      NOp   1
 Largest Abelian subgroup         C1      NOp   1
 Largest concise Abelian subgroup C1      NOp   1
                         Standard orientation:                         
 ---------------------------------------------------------------------
 Center     Atomic      Atomic             Coordinates (Angstroms)
 Number     Number       Type             X           Y           Z
 ---------------------------------------------------------------------
      1          6           0        1.413995   -0.703710    0.163130
      2          6           0        0.305997   -1.450662   -0.241522
      3          6           0       -0.990074   -0.919896   -0.230366
      4          6           0       -0.990058    0.919910   -0.230365
      5          6           0        0.306022    1.450659   -0.241520
      6          6           0        1.414007    0.703689    0.163131
      7          1           0        2.375894   -1.212166    0.277575
      8          1           0        0.451044   -2.445553   -0.673304
      9          1           0        0.451086    2.445544   -0.673313
     10          1           0        2.375916    1.212127    0.277572
     11          8           0       -1.344296    0.000011    0.746308
     12          1           0       -1.829446    1.412090   -0.736963
     13          1           0       -1.829470   -1.412070   -0.736955
 ---------------------------------------------------------------------
 Rotational constants (GHZ):      4.3580931      3.7300680      2.2663155
 Standard basis: SVP (5D, 7F)
 There are   135 symmetry adapted cartesian basis functions of A   symmetry.
 There are   128 symmetry adapted basis functions of A   symmetry.
   128 basis functions,   217 primitive gaussians,   135 cartesian basis functions
    25 alpha electrons       25 beta electrons
       nuclear repulsion energy       279.6736814775 Hartrees.
 NAtoms=   13 NActive=   13 NUniq=   13 SFac= 1.00D+00 NAtFMM=   60 NAOKFM=F Big=F
 Integral buffers will be    131072 words long.
 Raffenetti 2 integral format.
 Two-electron integral symmetry is turned on.
 One-electron integrals computed using PRISM.
 NBasis=   128 RedAO= T EigKep=  5.18D-04  NBF=   128
 NBsUse=   128 1.00D-06 EigRej= -1.00D+00 NBFU=   128
 Initial guess from the checkpoint file:  "/tmp/Gau-11653.chk"
 B after Tr=     0.000000    0.000000    0.000000
         Rot=    1.000000   -0.000013   -0.000240    0.000073 Ang=  -0.03 deg.
 ExpMin= 1.22D-01 ExpMax= 2.27D+03 ExpMxC= 3.41D+02 IAcc=1 IRadAn=         1 AccDes= 0.00D+00
 Harris functional with IExCor=  402 and IRadAn=       1 diagonalized for initial guess.
 HarFok:  IExCor=  402 AccDes= 0.00D+00 IRadAn=         1 IDoV= 1 UseB2=F ITyADJ=14
 ICtDFT=  3500011 ScaDFX=  1.000000  1.000000  1.000000  1.000000
 FoFCou: FMM=F IPFlag=           0 FMFlag=      100000 FMFlg1=           0
         NFxFlg=           0 DoJE=T BraDBF=F KetDBF=T FulRan=T
         wScrn=  0.000000 ICntrl=     500 IOpCl=  0 I1Cent=   200000004 NGrid=           0
         NMat0=    1 NMatS0=      1 NMatT0=    0 NMatD0=    1 NMtDS0=    0 NMtDT0=    0
 Petite list used in FoFCou.
 Requested convergence on RMS density matrix=1.00D-08 within 128 cycles.
 Requested convergence on MAX density matrix=1.00D-06.
 Requested convergence on             energy=1.00D-06.
 No special actions if energy rises.
 Integral accuracy reduced to 1.0D-05 until final iterations.
 Initial convergence to 1.0D-05 achieved.  Increase integral accuracy.
 SCF Done:  E(RB3LYP) =  -307.163633733     A.U. after   12 cycles
            NFock= 12  Conv=0.95D-08     -V/T= 2.0103
 Calling FoFJK, ICntrl=      2127 FMM=F ISym2X=0 I1Cent= 0 IOpClX= 0 NMat=1 NMatS=1 NMatT=0.
 ***** Axes restored to original set *****
 -------------------------------------------------------------------
 Center     Atomic                   Forces (Hartrees/Bohr)
 Number     Number              X              Y              Z
 -------------------------------------------------------------------
      1        6           0.000024133    0.000008972   -0.000009570
      2        6           0.000001396   -0.000022890   -0.000007928
      3        6          -0.000022099    0.000019585   -0.000011200
      4        6          -0.000021257   -0.000018591   -0.000012168
      5        6           0.000000316    0.000021587   -0.000008527
      6        6           0.000024195   -0.000008984   -0.000009959
      7        1          -0.000001162   -0.000001335    0.000010651
      8        1           0.000000797   -0.000002458    0.000007107
      9        1           0.000000641    0.000002583    0.000007509
     10        1          -0.000001214    0.000001476    0.000010865
     11        8          -0.000011302   -0.000000355    0.000025838
     12        1           0.000002753    0.000007829   -0.000001218
     13        1           0.000002804   -0.000007420   -0.000001400
 -------------------------------------------------------------------
 Cartesian Forces:  Max     0.000025838 RMS     0.000012279

 GradGradGradGradGradGradGradGradGradGradGradGradGradGradGradGradGradGrad
 Berny optimization.
 FormGI is forming the generalized inverse of G from B-inverse, IUseBI=4.
 Internal  Forces:  Max     0.000028838 RMS     0.000007853
 Search for a saddle point.
 Step number   2 out of a maximum of   74
 All quantities printed in internal units (Hartrees-Bohrs-Radians)
 Swapping is turned off.
 Update second derivatives using D2CorX and points    1    2
 ITU=  0  0
     Eigenvalues ---   -0.03817   0.01395   0.01507   0.01723   0.02041
     Eigenvalues ---    0.02225   0.02278   0.02454   0.02731   0.03230
     Eigenvalues ---    0.06903   0.07938   0.10307   0.11018   0.11563
     Eigenvalues ---    0.11887   0.12556   0.17559   0.18012   0.20270
     Eigenvalues ---    0.29406   0.31257   0.35235   0.35313   0.35365
     Eigenvalues ---    0.35389   0.35588   0.35671   0.35738   0.40846
     Eigenvalues ---    0.43097   0.46251   0.49923
 Eigenvectors required to have negative eigenvalues:
                          R6        D10       D21       D22       D13
   1                   -0.74546  -0.28390   0.28389   0.28000  -0.27998
                          R4        R9        R1        R12       A7
   1                    0.13469   0.13469  -0.09590  -0.09589   0.09182
 RFO step:  Lambda0=4.889091527D-09 Lambda=-2.53383678D-08.
 Linear search not attempted -- option 19 set.
 Iteration  1 RMS(Cart)=  0.00011584 RMS(Int)=  0.00000001
 Iteration  2 RMS(Cart)=  0.00000001 RMS(Int)=  0.00000001
 Variable       Old X    -DE/DX   Delta X   Delta X   Delta X     New X
                                 (Linear)    (Quad)   (Total)
    R1        2.63841   0.00002   0.00000   0.00009   0.00009   2.63850
    R2        2.65960   0.00000   0.00000  -0.00005  -0.00005   2.65955
    R3        2.06739   0.00000   0.00000   0.00000   0.00000   2.06739
    R4        2.64672   0.00003   0.00000   0.00000   0.00000   2.64672
    R5        2.06775   0.00000   0.00000   0.00000   0.00000   2.06775
    R6        3.47673   0.00000   0.00000   0.00037   0.00037   3.47709
    R7        2.62229   0.00001   0.00000   0.00002   0.00002   2.62231
    R8        2.07307   0.00000   0.00000   0.00000   0.00000   2.07307
    R9        2.64672   0.00003   0.00000   0.00000   0.00000   2.64672
   R10        2.62229   0.00001   0.00000   0.00002   0.00002   2.62231
   R11        2.07307   0.00000   0.00000   0.00000   0.00000   2.07307
   R12        2.63841   0.00002   0.00000   0.00009   0.00009   2.63850
   R13        2.06775   0.00000   0.00000   0.00000   0.00000   2.06775
   R14        2.06739   0.00000   0.00000   0.00000   0.00000   2.06739
    A1        2.13530   0.00000   0.00000   0.00002   0.00002   2.13533
    A2        2.07080   0.00000   0.00000   0.00000   0.00000   2.07080
    A3        2.05415   0.00000   0.00000   0.00004   0.00004   2.05419
    A4        2.12860   0.00000   0.00000   0.00003   0.00003   2.12863
    A5        2.08933   0.00000   0.00000  -0.00002  -0.00002   2.08931
    A6        2.06051   0.00000   0.00000   0.00000   0.00000   2.06051
    A7        1.95946   0.00000   0.00000  -0.00004  -0.00004   1.95942
    A8        2.08638   0.00000   0.00000   0.00002   0.00002   2.08640
    A9        2.13455  -0.00001   0.00000  -0.00005  -0.00005   2.13450
   A10        2.03605   0.00001   0.00000   0.00012   0.00012   2.03617
   A11        2.01210   0.00000   0.00000   0.00003   0.00003   2.01213
   A12        1.95946   0.00000   0.00000  -0.00005  -0.00005   1.95942
   A13        2.03604   0.00001   0.00000   0.00013   0.00013   2.03617
   A14        2.08638   0.00000   0.00000   0.00002   0.00002   2.08640
   A15        2.13455  -0.00001   0.00000  -0.00005  -0.00005   2.13450
   A16        2.01210   0.00000   0.00000   0.00003   0.00003   2.01213
   A17        2.12859   0.00000   0.00000   0.00004   0.00004   2.12863
   A18        2.06051   0.00000   0.00000   0.00000   0.00000   2.06051
   A19        2.08933   0.00000   0.00000  -0.00002  -0.00002   2.08931
   A20        2.13530   0.00000   0.00000   0.00002   0.00002   2.13533
   A21        2.05415   0.00000   0.00000   0.00004   0.00004   2.05419
   A22        2.07080   0.00000   0.00000   0.00000   0.00000   2.07080
    D1       -0.39303   0.00000   0.00000   0.00003   0.00003  -0.39299
    D2        2.64194   0.00000   0.00000   0.00016   0.00016   2.64210
    D3        2.98242  -0.00001   0.00000  -0.00029  -0.00029   2.98213
    D4       -0.26580   0.00000   0.00000  -0.00016  -0.00016  -0.26597
    D5        0.00000   0.00000   0.00000   0.00000   0.00000   0.00000
    D6       -2.90985  -0.00001   0.00000  -0.00033  -0.00033  -2.91017
    D7        2.90985   0.00001   0.00000   0.00032   0.00032   2.91017
    D8        0.00001   0.00000   0.00000  -0.00001  -0.00001   0.00000
    D9        0.35719   0.00000   0.00000  -0.00004  -0.00004   0.35715
   D10       -0.58092  -0.00001   0.00000   0.00007   0.00007  -0.58084
   D11        2.91150   0.00000   0.00000   0.00004   0.00004   2.91155
   D12       -2.67946   0.00000   0.00000  -0.00017  -0.00017  -2.67963
   D13        2.66562  -0.00001   0.00000  -0.00005  -0.00005   2.66556
   D14       -0.12515   0.00000   0.00000  -0.00008  -0.00008  -0.12523
   D15        0.00000   0.00000   0.00000   0.00000   0.00000   0.00000
   D16        2.58998   0.00000   0.00000   0.00003   0.00003   2.59001
   D17       -2.58998   0.00000   0.00000  -0.00002  -0.00002  -2.59001
   D18       -0.00001   0.00000   0.00000   0.00001   0.00001   0.00000
   D19       -0.35719   0.00000   0.00000   0.00004   0.00004  -0.35715
   D20        2.67945   0.00000   0.00000   0.00018   0.00018   2.67963
   D21        0.58092   0.00001   0.00000  -0.00008  -0.00008   0.58084
   D22       -2.66563   0.00001   0.00000   0.00006   0.00006  -2.66556
   D23       -2.91149   0.00000   0.00000  -0.00006  -0.00006  -2.91155
   D24        0.12515   0.00000   0.00000   0.00009   0.00009   0.12523
   D25        0.39302   0.00000   0.00000  -0.00003  -0.00003   0.39299
   D26       -2.98243   0.00001   0.00000   0.00030   0.00030  -2.98213
   D27       -2.64193   0.00000   0.00000  -0.00018  -0.00018  -2.64210
   D28        0.26581   0.00000   0.00000   0.00016   0.00016   0.26597
         Item               Value     Threshold  Converged?
 Maximum Force            0.000029     0.000450     YES
 RMS     Force            0.000008     0.000300     YES
 Maximum Displacement     0.000415     0.001800     YES
 RMS     Displacement     0.000116     0.001200     YES
 Predicted change in Energy=-1.022464D-08
 Optimization completed.
    -- Stationary point found.
                           ----------------------------
                           !   Optimized Parameters   !
                           ! (Angstroms and Degrees)  !
 --------------------------                            --------------------------
 ! Name  Definition              Value          Derivative Info.                !
 --------------------------------------------------------------------------------
 ! R1    R(1,2)                  1.3962         -DE/DX =    0.0                 !
 ! R2    R(1,6)                  1.4074         -DE/DX =    0.0                 !
 ! R3    R(1,7)                  1.094          -DE/DX =    0.0                 !
 ! R4    R(2,3)                  1.4006         -DE/DX =    0.0                 !
 ! R5    R(2,8)                  1.0942         -DE/DX =    0.0                 !
 ! R6    R(3,4)                  1.8398         -DE/DX =    0.0                 !
 ! R7    R(3,11)                 1.3877         -DE/DX =    0.0                 !
 ! R8    R(3,13)                 1.097          -DE/DX =    0.0                 !
 ! R9    R(4,5)                  1.4006         -DE/DX =    0.0                 !
 ! R10   R(4,11)                 1.3877         -DE/DX =    0.0                 !
 ! R11   R(4,12)                 1.097          -DE/DX =    0.0                 !
 ! R12   R(5,6)                  1.3962         -DE/DX =    0.0                 !
 ! R13   R(5,9)                  1.0942         -DE/DX =    0.0                 !
 ! R14   R(6,10)                 1.094          -DE/DX =    0.0                 !
 ! A1    A(2,1,6)              122.344          -DE/DX =    0.0                 !
 ! A2    A(2,1,7)              118.6479         -DE/DX =    0.0                 !
 ! A3    A(6,1,7)              117.6942         -DE/DX =    0.0                 !
 ! A4    A(1,2,3)              121.9595         -DE/DX =    0.0                 !
 ! A5    A(1,2,8)              119.7097         -DE/DX =    0.0                 !
 ! A6    A(3,2,8)              118.0587         -DE/DX =    0.0                 !
 ! A7    A(2,3,4)              112.2688         -DE/DX =    0.0                 !
 ! A8    A(2,3,11)             119.5409         -DE/DX =    0.0                 !
 ! A9    A(2,3,13)             122.3009         -DE/DX =    0.0                 !
 ! A10   A(4,3,13)             116.6573         -DE/DX =    0.0                 !
 ! A11   A(11,3,13)            115.2847         -DE/DX =    0.0                 !
 ! A12   A(3,4,5)              112.2691         -DE/DX =    0.0                 !
 ! A13   A(3,4,12)             116.6568         -DE/DX =    0.0                 !
 ! A14   A(5,4,11)             119.541          -DE/DX =    0.0                 !
 ! A15   A(5,4,12)             122.3009         -DE/DX =    0.0                 !
 ! A16   A(11,4,12)            115.2847         -DE/DX =    0.0                 !
 ! A17   A(4,5,6)              121.9593         -DE/DX =    0.0                 !
 ! A18   A(4,5,9)              118.0588         -DE/DX =    0.0                 !
 ! A19   A(6,5,9)              119.7098         -DE/DX =    0.0                 !
 ! A20   A(1,6,5)              122.3439         -DE/DX =    0.0                 !
 ! A21   A(1,6,10)             117.6941         -DE/DX =    0.0                 !
 ! A22   A(5,6,10)             118.648          -DE/DX =    0.0                 !
 ! D1    D(6,1,2,3)            -22.5187         -DE/DX =    0.0                 !
 ! D2    D(6,1,2,8)            151.372          -DE/DX =    0.0                 !
 ! D3    D(7,1,2,3)            170.8801         -DE/DX =    0.0                 !
 ! D4    D(7,1,2,8)            -15.2293         -DE/DX =    0.0                 !
 ! D5    D(2,1,6,5)              0.0            -DE/DX =    0.0                 !
 ! D6    D(2,1,6,10)          -166.722          -DE/DX =    0.0                 !
 ! D7    D(7,1,6,5)            166.7223         -DE/DX =    0.0                 !
 ! D8    D(7,1,6,10)             0.0003         -DE/DX =    0.0                 !
 ! D9    D(1,2,3,4)             20.4655         -DE/DX =    0.0                 !
 ! D10   D(1,2,3,11)           -33.284          -DE/DX =    0.0                 !
 ! D11   D(1,2,3,13)           166.8168         -DE/DX =    0.0                 !
 ! D12   D(8,2,3,4)           -153.5219         -DE/DX =    0.0                 !
 ! D13   D(8,2,3,11)           152.7286         -DE/DX =    0.0                 !
 ! D14   D(8,2,3,13)            -7.1706         -DE/DX =    0.0                 !
 ! D15   D(2,3,4,5)              0.0            -DE/DX =    0.0                 !
 ! D16   D(2,3,4,12)           148.3947         -DE/DX =    0.0                 !
 ! D17   D(13,3,4,5)          -148.3951         -DE/DX =    0.0                 !
 ! D18   D(13,3,4,12)           -0.0005         -DE/DX =    0.0                 !
 ! D19   D(3,4,5,6)            -20.4654         -DE/DX =    0.0                 !
 ! D20   D(3,4,5,9)            153.5211         -DE/DX =    0.0                 !
 ! D21   D(11,4,5,6)            33.2843         -DE/DX =    0.0                 !
 ! D22   D(11,4,5,9)          -152.7291         -DE/DX =    0.0                 !
 ! D23   D(12,4,5,6)          -166.8161         -DE/DX =    0.0                 !
 ! D24   D(12,4,5,9)             7.1705         -DE/DX =    0.0                 !
 ! D25   D(4,5,6,1)             22.5186         -DE/DX =    0.0                 !
 ! D26   D(4,5,6,10)          -170.8805         -DE/DX =    0.0                 !
 ! D27   D(9,5,6,1)           -151.3712         -DE/DX =    0.0                 !
 ! D28   D(9,5,6,10)            15.2297         -DE/DX =    0.0                 !
 --------------------------------------------------------------------------------
 GradGradGradGradGradGradGradGradGradGradGradGradGradGradGradGradGradGrad

                          Input orientation:                          
 ---------------------------------------------------------------------
 Center     Atomic      Atomic             Coordinates (Angstroms)
 Number     Number       Type             X           Y           Z
 ---------------------------------------------------------------------
      1          6           0        1.413922   -0.703501    0.164602
      2          6           0        0.306308   -1.450634   -0.240762
      3          6           0       -0.989855   -0.920076   -0.230457
      4          6           0       -0.990133    0.919729   -0.230477
      5          6           0        0.305868    1.450686   -0.240793
      6          6           0        1.413709    0.703898    0.164588
      7          1           0        2.375828   -1.211802    0.279681
      8          1           0        0.451795   -2.445507   -0.672439
      9          1           0        0.451054    2.445589   -0.672502
     10          1           0        2.375462    1.212491    0.279650
     11          8           0       -1.344861   -0.000215    0.745975
     12          1           0       -1.829270    1.411770   -0.737627
     13          1           0       -1.828843   -1.412390   -0.737588
 ---------------------------------------------------------------------
                    Distance matrix (angstroms):
                    1          2          3          4          5
     1  C    0.000000
     2  C    1.396187   0.000000
     3  C    2.445633   1.400584   0.000000
     4  C    2.927533   2.701757   1.839805   0.000000
     5  C    2.456146   2.901321   2.701762   1.400586   0.000000
     6  C    1.407399   2.456147   2.927537   2.445633   1.396187
     7  H    1.094018   2.147281   3.416601   4.016638   3.412400
     8  H    2.158915   1.094205   2.144911   3.687724   3.922746
     9  H    3.397739   3.922743   3.687726   2.144914   1.094205
    10  H    2.146816   3.412399   4.016642   3.416602   2.147282
    11  O    2.905768   2.409092   1.387657   1.387656   2.409094
    12  H    3.975762   3.605679   2.529692   1.097021   2.192526
    13  H    3.439767   2.192525   1.097021   2.529699   3.605690
                    6          7          8          9         10
     6  C    0.000000
     7  H    2.146817   0.000000
     8  H    3.397741   2.475977   0.000000
     9  H    2.158915   4.241217   4.891097   0.000000
    10  H    1.094018   2.424293   4.241217   2.475979   0.000000
    11  O    2.905769   3.940672   3.349526   3.349530   3.940675
    12  H    3.439766   5.059732   4.481751   2.504576   4.330628
    13  H    3.975769   4.330626   2.504573   4.481760   5.059739
                   11         12         13
    11  O    0.000000
    12  H    2.104621   0.000000
    13  H    2.104623   2.824160   0.000000
 Stoichiometry    C6H6O
 Framework group  C1[X(C6H6O)]
 Deg. of freedom    33
 Full point group                 C1      NOp   1
 Largest Abelian subgroup         C1      NOp   1
 Largest concise Abelian subgroup C1      NOp   1
                         Standard orientation:                         
 ---------------------------------------------------------------------
 Center     Atomic      Atomic             Coordinates (Angstroms)
 Number     Number       Type             X           Y           Z
 ---------------------------------------------------------------------
      1          6           0        1.413995   -0.703710    0.163130
      2          6           0        0.305997   -1.450662   -0.241522
      3          6           0       -0.990074   -0.919896   -0.230366
      4          6           0       -0.990058    0.919910   -0.230365
      5          6           0        0.306022    1.450659   -0.241520
      6          6           0        1.414007    0.703689    0.163131
      7          1           0        2.375894   -1.212166    0.277575
      8          1           0        0.451044   -2.445553   -0.673304
      9          1           0        0.451086    2.445544   -0.673313
     10          1           0        2.375916    1.212127    0.277572
     11          8           0       -1.344296    0.000011    0.746308
     12          1           0       -1.829446    1.412090   -0.736963
     13          1           0       -1.829470   -1.412070   -0.736955
 ---------------------------------------------------------------------
 Rotational constants (GHZ):      4.3580931      3.7300680      2.2663155

 **********************************************************************

            Population analysis using the SCF density.

 **********************************************************************

 Orbital symmetries:
       Occupied  (A) (A) (A) (A) (A) (A) (A) (A) (A) (A) (A) (A)
                 (A) (A) (A) (A) (A) (A) (A) (A) (A) (A) (A) (A)
                 (A)
       Virtual   (A) (A) (A) (A) (A) (A) (A) (A) (A) (A) (A) (A)
                 (A) (A) (A) (A) (A) (A) (A) (A) (A) (A) (A) (A)
                 (A) (A) (A) (A) (A) (A) (A) (A) (A) (A) (A) (A)
                 (A) (A) (A) (A) (A) (A) (A) (A) (A) (A) (A) (A)
                 (A) (A) (A) (A) (A) (A) (A) (A) (A) (A) (A) (A)
                 (A) (A) (A) (A) (A) (A) (A) (A) (A) (A) (A) (A)
                 (A) (A) (A) (A) (A) (A) (A) (A) (A) (A) (A) (A)
                 (A) (A) (A) (A) (A) (A) (A) (A) (A) (A) (A) (A)
                 (A) (A) (A) (A) (A) (A) (A)
 The electronic state is 1-A.
 Alpha  occ. eigenvalues --  -19.15877 -10.25683 -10.25681 -10.19645 -10.19613
 Alpha  occ. eigenvalues --  -10.19379 -10.19374  -1.08446  -0.81710  -0.76549
 Alpha  occ. eigenvalues --   -0.68758  -0.64191  -0.57014  -0.53378  -0.52463
 Alpha  occ. eigenvalues --   -0.47305  -0.46095  -0.45200  -0.42313  -0.38374
 Alpha  occ. eigenvalues --   -0.36873  -0.34459  -0.28780  -0.24620  -0.24386
 Alpha virt. eigenvalues --   -0.02355  -0.01128   0.05659   0.08661   0.09374
 Alpha virt. eigenvalues --    0.10116   0.13029   0.14111   0.15585   0.16939
 Alpha virt. eigenvalues --    0.24410   0.29402   0.29929   0.30788   0.37551
 Alpha virt. eigenvalues --    0.40777   0.40832   0.43999   0.44150   0.45049
 Alpha virt. eigenvalues --    0.45173   0.48620   0.49289   0.50093   0.53060
 Alpha virt. eigenvalues --    0.55560   0.57507   0.59831   0.60400   0.62688
 Alpha virt. eigenvalues --    0.63208   0.64614   0.66902   0.68318   0.70888
 Alpha virt. eigenvalues --    0.71415   0.72374   0.74534   0.75379   0.75739
 Alpha virt. eigenvalues --    0.83675   0.86698   0.94149   0.96407   1.04554
 Alpha virt. eigenvalues --    1.08776   1.14768   1.21782   1.27843   1.28984
 Alpha virt. eigenvalues --    1.30378   1.32677   1.33431   1.42501   1.43732
 Alpha virt. eigenvalues --    1.46045   1.63714   1.68854   1.69345   1.70735
 Alpha virt. eigenvalues --    1.71378   1.72436   1.74066   1.74810   1.77858
 Alpha virt. eigenvalues --    1.78906   1.81787   1.86828   1.88155   1.91959
 Alpha virt. eigenvalues --    1.93487   1.96601   1.99280   2.00390   2.02355
 Alpha virt. eigenvalues --    2.04128   2.07757   2.15460   2.16764   2.20244
 Alpha virt. eigenvalues --    2.23587   2.34543   2.34672   2.39061   2.39281
 Alpha virt. eigenvalues --    2.46068   2.55028   2.55037   2.64886   2.65461
 Alpha virt. eigenvalues --    2.72051   2.73467   2.78736   2.85192   2.91686
 Alpha virt. eigenvalues --    2.94208   3.00242   3.04654   3.14968   3.23499
 Alpha virt. eigenvalues --    3.33042   3.43106   3.58292
          Condensed to atoms (all electrons):
               1          2          3          4          5          6
     1  C    4.911153   0.376016   0.027512  -0.063743  -0.001351   0.420157
     2  C    0.376016   5.025276   0.378371  -0.006453  -0.039139  -0.001350
     3  C    0.027512   0.378371   4.888981   0.041077  -0.006454  -0.063743
     4  C   -0.063743  -0.006453   0.041077   4.888978   0.378374   0.027512
     5  C   -0.001351  -0.039139  -0.006454   0.378374   5.025272   0.376019
     6  C    0.420157  -0.001350  -0.063743   0.027512   0.376019   4.911151
     7  H    0.415589  -0.059697   0.012415  -0.000804   0.013742  -0.057961
     8  H   -0.053467   0.415317  -0.057400   0.004414  -0.001963   0.011969
     9  H    0.011969  -0.001963   0.004414  -0.057399   0.415316  -0.053467
    10  H   -0.057961   0.013742  -0.000804   0.012415  -0.059697   0.415589
    11  O    0.002115  -0.061727   0.271949   0.271950  -0.061727   0.002115
    12  H    0.001041  -0.003051   0.002153   0.398217  -0.059674   0.010092
    13  H    0.010092  -0.059675   0.398218   0.002153  -0.003051   0.001041
               7          8          9         10         11         12
     1  C    0.415589  -0.053467   0.011969  -0.057961   0.002115   0.001041
     2  C   -0.059697   0.415317  -0.001963   0.013742  -0.061727  -0.003051
     3  C    0.012415  -0.057400   0.004414  -0.000804   0.271949   0.002153
     4  C   -0.000804   0.004414  -0.057399   0.012415   0.271950   0.398217
     5  C    0.013742  -0.001963   0.415316  -0.059697  -0.061727  -0.059674
     6  C   -0.057961   0.011969  -0.053467   0.415589   0.002115   0.010092
     7  H    0.712011  -0.012649  -0.000300  -0.015787  -0.000114   0.000016
     8  H   -0.012649   0.700446   0.000044  -0.000300   0.003527   0.000090
     9  H   -0.000300   0.000044   0.700446  -0.012649   0.003527  -0.007146
    10  H   -0.015787  -0.000300  -0.012649   0.712010  -0.000114  -0.000371
    11  O   -0.000114   0.003527   0.003527  -0.000114   7.919715  -0.038564
    12  H    0.000016   0.000090  -0.007146  -0.000371  -0.038564   0.679573
    13  H   -0.000371  -0.007146   0.000090   0.000016  -0.038564   0.000133
              13
     1  C    0.010092
     2  C   -0.059675
     3  C    0.398218
     4  C    0.002153
     5  C   -0.003051
     6  C    0.001041
     7  H   -0.000371
     8  H   -0.007146
     9  H    0.000090
    10  H    0.000016
    11  O   -0.038564
    12  H    0.000133
    13  H    0.679572
 Mulliken charges:
               1
     1  C    0.000878
     2  C    0.024335
     3  C    0.103310
     4  C    0.103311
     5  C    0.024335
     6  C    0.000878
     7  H   -0.006090
     8  H   -0.002881
     9  H   -0.002881
    10  H   -0.006090
    11  O   -0.274089
    12  H    0.017492
    13  H    0.017492
 Sum of Mulliken charges =   0.00000
 Mulliken charges with hydrogens summed into heavy atoms:
               1
     1  C   -0.005211
     2  C    0.021453
     3  C    0.120802
     4  C    0.120803
     5  C    0.021454
     6  C   -0.005211
    11  O   -0.274089
 Electronic spatial extent (au):  <R**2>=            582.0682
 Charge=              0.0000 electrons
 Dipole moment (field-independent basis, Debye):
    X=              0.3569    Y=              0.0000    Z=             -1.6159  Tot=              1.6548
 Quadrupole moment (field-independent basis, Debye-Ang):
   XX=            -38.1198   YY=            -36.6993   ZZ=            -44.1656
   XY=              0.0000   XZ=              2.8424   YZ=              0.0000
 Traceless Quadrupole moment (field-independent basis, Debye-Ang):
   XX=              1.5418   YY=              2.9623   ZZ=             -4.5041
   XY=              0.0000   XZ=              2.8424   YZ=              0.0000
 Octapole moment (field-independent basis, Debye-Ang**2):
  XXX=             -1.8515  YYY=             -0.0001  ZZZ=              2.6604  XYY=             -2.0257
  XXY=             -0.0001  XXZ=             -1.8550  XZZ=             -2.7318  YZZ=              0.0000
  YYZ=             -4.1107  XYZ=              0.0000
 Hexadecapole moment (field-independent basis, Debye-Ang**3):
 XXXX=           -348.1203 YYYY=           -318.5181 ZZZZ=            -82.7697 XXXY=              0.0001
 XXXZ=              7.9095 YYYX=             -0.0001 YYYZ=             -0.0001 ZZZX=             -3.7000
 ZZZY=              0.0000 XXYY=           -106.5483 XXZZ=            -78.5612 YYZZ=            -68.9936
 XXYZ=             -0.0001 YYXZ=             -0.1703 ZZXY=              0.0000
 N-N= 2.796736814775D+02 E-N=-1.273000947837D+03  KE= 3.040250341760D+02
 1\1\GINC-QC0019\FTS\RB3LYP\SVP\C6H6O1\ELIOT\02-Oct-2018\0\\# opt=(ts, 
 calcfc, noeigen) b3lyp svp\\Title Card Required\\0,1\C,1.4139223934,-0
 .7035012263,0.1646024448\C,0.3063076559,-1.4506343267,-0.2407624062\C,
 -0.9898548948,-0.9200757387,-0.2304572806\C,-0.9901332453,0.9197294995
 ,-0.2304771844\C,0.3058679421,1.4506864588,-0.2407928891\C,1.413709416
 7,0.703897893,0.1645878215\H,2.3758275816,-1.2118022336,0.2796807666\H
 ,0.4517951436,-2.4455072676,-0.6724393523\H,0.4510540866,2.445589324,-
 0.6725024165\H,2.3754620951,1.2124910039,0.279650255\O,-1.3448606388,-
 0.0002151367,0.7459753249\H,-1.8292698235,1.4117700101,-0.7376272803\H
 ,-1.8288427127,-1.4123902598,-0.7375878035\\Version=ES64L-G09RevE.01\S
 tate=1-A\HF=-307.1636337\RMSD=9.532e-09\RMSF=1.228e-05\Dipole=0.140824
 5,0.0000095,-0.63564\Quadrupole=1.1435212,2.2023858,-3.345907,-0.00012
 24,2.116173,0.0002436\PG=C01 [X(C6H6O1)]\\@


 In the race for quality, there is no finish line.
                               -- David T. Kearns
 Job cpu time:       0 days  0 hours  4 minutes 21.9 seconds.
 File lengths (MBytes):  RWF=     30 Int=      0 D2E=      0 Chk=      2 Scr=      1
 Normal termination of Gaussian 09 at Tue Oct  2 16:36:55 2018.
