 Entering Gaussian System, Link 0=/home/eliot/software/g09E01/g09
 Initial command:
 /home/eliot/software/g09E01/l1.exe "/tmp/Gau-23171.inp" -scrdir="/tmp/"
 Entering Link 1 = /home/eliot/software/g09E01/l1.exe PID=     23173.
  
 Copyright (c) 1988,1990,1992,1993,1995,1998,2003,2009,2015,
            Gaussian, Inc.  All Rights Reserved.
  
 This is part of the Gaussian(R) 09 program.  It is based on
 the Gaussian(R) 03 system (copyright 2003, Gaussian, Inc.),
 the Gaussian(R) 98 system (copyright 1998, Gaussian, Inc.),
 the Gaussian(R) 94 system (copyright 1995, Gaussian, Inc.),
 the Gaussian 92(TM) system (copyright 1992, Gaussian, Inc.),
 the Gaussian 90(TM) system (copyright 1990, Gaussian, Inc.),
 the Gaussian 88(TM) system (copyright 1988, Gaussian, Inc.),
 the Gaussian 86(TM) system (copyright 1986, Carnegie Mellon
 University), and the Gaussian 82(TM) system (copyright 1983,
 Carnegie Mellon University). Gaussian is a federally registered
 trademark of Gaussian, Inc.
  
 This software contains proprietary and confidential information,
 including trade secrets, belonging to Gaussian, Inc.
  
 This software is provided under written license and may be
 used, copied, transmitted, or stored only in accord with that
 written license.
  
 The following legend is applicable only to US Government
 contracts under FAR:
  
                    RESTRICTED RIGHTS LEGEND
  
 Use, reproduction and disclosure by the US Government is
 subject to restrictions as set forth in subparagraphs (a)
 and (c) of the Commercial Computer Software - Restricted
 Rights clause in FAR 52.227-19.
  
 Gaussian, Inc.
 340 Quinnipiac St., Bldg. 40, Wallingford CT 06492
  
  
 ---------------------------------------------------------------
 Warning -- This program may not be used in any manner that
 competes with the business of Gaussian, Inc. or will provide
 assistance to any competitor of Gaussian, Inc.  The licensee
 of this program is prohibited from giving any competitor of
 Gaussian, Inc. access to this program.  By using this program,
 the user acknowledges that Gaussian, Inc. is engaged in the
 business of creating and licensing software in the field of
 computational chemistry and represents and warrants to the
 licensee that it is not a competitor of Gaussian, Inc. and that
 it will not use this program in any manner prohibited above.
 ---------------------------------------------------------------
  

 Cite this work as:
 Gaussian 09, Revision E.01,
 M. J. Frisch, G. W. Trucks, H. B. Schlegel, G. E. Scuseria, 
 M. A. Robb, J. R. Cheeseman, G. Scalmani, V. Barone, B. Mennucci, 
 G. A. Petersson, H. Nakatsuji, M. Caricato, X. Li, H. P. Hratchian, 
 A. F. Izmaylov, J. Bloino, G. Zheng, J. L. Sonnenberg, M. Hada, 
 M. Ehara, K. Toyota, R. Fukuda, J. Hasegawa, M. Ishida, T. Nakajima, 
 Y. Honda, O. Kitao, H. Nakai, T. Vreven, J. A. Montgomery, Jr., 
 J. E. Peralta, F. Ogliaro, M. Bearpark, J. J. Heyd, E. Brothers, 
 K. N. Kudin, V. N. Staroverov, T. Keith, R. Kobayashi, J. Normand, 
 K. Raghavachari, A. Rendell, J. C. Burant, S. S. Iyengar, J. Tomasi, 
 M. Cossi, N. Rega, J. M. Millam, M. Klene, J. E. Knox, J. B. Cross, 
 V. Bakken, C. Adamo, J. Jaramillo, R. Gomperts, R. E. Stratmann, 
 O. Yazyev, A. J. Austin, R. Cammi, C. Pomelli, J. W. Ochterski, 
 R. L. Martin, K. Morokuma, V. G. Zakrzewski, G. A. Voth, 
 P. Salvador, J. J. Dannenberg, S. Dapprich, A. D. Daniels, 
 O. Farkas, J. B. Foresman, J. V. Ortiz, J. Cioslowski, 
 and D. J. Fox, Gaussian, Inc., Wallingford CT, 2013.
 
 ******************************************
 Gaussian 09:  ES64L-G09RevE.01 30-Nov-2015
                18-Oct-2018 
 ******************************************
 %nproc=1
 Will use up to    1 processors via shared memory.
 %mem=4GB
 %Chk=gradients-qmjob.chk
 ----------------------------------------------------------------------
 #P force hf/sto-3g Charge NoSymm Prop=(Read,Field) punch=derivatives G
 uess=Read
 ----------------------------------------------------------------------
 1/10=7,18=10,28=-2,30=1,38=1,125=101/1,3;
 2/12=2,15=1,17=6,18=5,29=2,40=1/2;
 3/6=3,11=9,16=1,25=1,30=1,71=1,116=-2/1,2,3;
 4/5=1/1;
 5/5=2,38=6/2;
 6/7=2,8=2,9=2,10=2,14=2,15=1,28=1/1,2;
 7/7=1,16=-2,29=1,30=1/1,2,3,16;
 1/10=7,18=10,28=-2,30=1/3;
 99/10=4,12=1/99;
 Leave Link    1 at Thu Oct 18 15:47:21 2018, MaxMem=   536870912 cpu:         0.0
 (Enter /home/eliot/software/g09E01/l101.exe)
 -------------------
 Generated by Zonkey
 -------------------
 Symbolic Z-matrix:
 Charge =  0 Multiplicity = 1
 O                     1.80654  -0.13918   0.01331 
 H                     0.98803   0.40357  -0.16919 
 H                     1.63293   0.43376   0.80503 
 
 NAtoms=      3 NQM=        3 NQMF=       0 NMMI=      0 NMMIF=      0
                NMic=       0 NMicF=      0.
                    Isotopes and Nuclear Properties:
 (Nuclear quadrupole moments (NQMom) in fm**2, nuclear magnetic moments (NMagM)
  in nuclear magnetons)

  Atom         1           2           3
 IAtWgt=          16           1           1
 AtmWgt=  15.9949146   1.0078250   1.0078250
 NucSpn=           0           1           1
 AtZEff=   0.0000000   0.0000000   0.0000000
 NQMom=    0.0000000   0.0000000   0.0000000
 NMagM=    0.0000000   2.7928460   2.7928460
 AtZNuc=   8.0000000   1.0000000   1.0000000
 Background charge distribution read from input stream:
 Point Charges:
 XYZ=   -0.4994    0.8574   -0.0262 Q=   -0.8340 A=    0.0000 R=    0.0000 C=    0.0000
 XYZ=   -0.1048    0.9686   -0.8407 Q=    0.4170 A=    0.0000 R=    0.0000 C=    0.0000
 XYZ=   -0.9759    0.0100   -0.1647 Q=    0.4170 A=    0.0000 R=    0.0000 C=    0.0000
 Pt Chg Charge=              0.0000 electrons
 Pt Chg Dipole moment (Debye):
    X=             -0.1643    Y=             -1.4745    Z=             -1.9088  Tot=              2.4176
 Pt Chg Quadrupole moment (Debye-Ang):
   XX=              0.9307   YY=             -1.0654   ZZ=              1.4674
   XY=              1.4923   XZ=              0.4460   YZ=             -1.5443
 Pt Chg Traceless Quadrupole moment (Debye-Ang):
   XX=              0.4865   YY=             -1.5096   ZZ=              1.0231
   XY=              1.4923   XZ=              0.4460   YZ=             -1.5443
 Pt Chg Octapole moment (Debye-Ang**2):
  XXX=             -1.3652  YYY=             -0.7045  ZZZ=             -1.1992  XYY=              1.2734
  XXY=             -0.8162  XXZ=             -0.3065  XZZ=             -0.2001  YZZ=              1.3696
  YYZ=             -1.5028  XYZ=              0.1292
 Pt Chg Hexadecapole moment (Debye-Ang**3):
 XXXX=              1.5681 YYYY=             -0.4016 ZZZZ=              1.0022 XXXY=              0.4069
 XXXZ=              0.2955 YYYX=              1.0701 YYYZ=             -1.4642 ZZZX=              0.1335
 ZZZY=             -1.1530 XXYY=             -0.7135 XXZZ=              0.0666 YYZZ=              1.3264
 XXYZ=              0.0014 YYXZ=              0.1271 ZZXY=             -0.1431
 Leave Link  101 at Thu Oct 18 15:47:21 2018, MaxMem=   536870912 cpu:         0.1
 (Enter /home/eliot/software/g09E01/l103.exe)

 GradGradGradGradGradGradGradGradGradGradGradGradGradGradGradGradGradGrad
 Berny optimization.
 Initialization pass.
 Trust Radius=3.00D-01 FncErr=1.00D-07 GrdErr=1.00D-07
 Number of steps in this run=      2 maximum allowed number of steps=      2.
 GradGradGradGradGradGradGradGradGradGradGradGradGradGradGradGradGradGrad

 Leave Link  103 at Thu Oct 18 15:47:21 2018, MaxMem=   536870912 cpu:         0.0
 (Enter /home/eliot/software/g09E01/l202.exe)
 ---------------------------------------------------------------------------------------------------
                            Z-MATRIX (ANGSTROMS AND DEGREES)
   CD    Cent   Atom    N1       Length/X        N2       Alpha/Y        N3        Beta/Z          J
 ---------------------------------------------------------------------------------------------------
      1      1  O        0   1.806540         -0.139183          0.013311
      2      2  H        0   0.988035          0.403569         -0.169186
      3      3  H        0   1.632931          0.433762          0.805031
 ---------------------------------------------------------------------------------------------------
                         Z-Matrix orientation:                         
 ---------------------------------------------------------------------
 Center     Atomic      Atomic             Coordinates (Angstroms)
 Number     Number       Type             X           Y           Z
 ---------------------------------------------------------------------
      1          8           0        1.806540   -0.139183    0.013311
      2          1           0        0.988035    0.403569   -0.169186
      3          1           0        1.632931    0.433762    0.805031
 ---------------------------------------------------------------------
                    Distance matrix (angstroms):
                    1          2          3
     1  O    0.000000
     2  H    0.998918   0.000000
     3  H    0.992586   1.168718   0.000000
 Symmetry turned off by external request.
 Stoichiometry    H2O
 Framework group  CS[SG(H2O)]
 Deg. of freedom     3
 Full point group                 CS      NOp   2
 Rotational constants (GHZ):    734.3279631    434.2785098    272.8915686
 Leave Link  202 at Thu Oct 18 15:47:21 2018, MaxMem=   536870912 cpu:         0.0
 (Enter /home/eliot/software/g09E01/l301.exe)
 Standard basis: STO-3G (5D, 7F)
 Ernie: Thresh=  0.10000D-02 Tol=  0.10000D-05 Strict=F.
     7 basis functions,    21 primitive gaussians,     7 cartesian basis functions
     5 alpha electrons        5 beta electrons
       nuclear repulsion energy         8.9558271598 Hartrees.
 IExCor=    0 DFT=F Ex=HF Corr=None ExCW=0 ScaHFX=  1.000000
 ScaDFX=  1.000000  1.000000  1.000000  1.000000 ScalE2=  1.000000  1.000000
 IRadAn=      0 IRanWt=     -1 IRanGd=            0 ICorTp=0 IEmpDi=  4
 NAtoms=    3 NActive=    3 NUniq=    3 SFac= 1.00D+00 NAtFMM=   60 NAOKFM=F Big=F
 Integral buffers will be    131072 words long.
 Raffenetti 1 integral format.
 Two-electron integral symmetry is turned off.
 Background charge distribution read from rwf.
 PtFMM for NChg=         6 BoxLen=    40.00 Levels= 0 LMax=20 SMax=     5.3 ICnFMM=     1:
 Self energy of the charges =        -0.3262501143 a.u.
 MM   energy of the charges =         0.0000000000 a.u.
 Nuclei-charges interaction =        -0.0640067730 a.u.
 Nuclear repulsion after external point charges =        8.5655702725 Hartrees.
 Leave Link  301 at Thu Oct 18 15:47:21 2018, MaxMem=   536870912 cpu:         0.0
 (Enter /home/eliot/software/g09E01/l302.exe)
 NPDir=0 NMtPBC=     1 NCelOv=     1 NCel=       1 NClECP=     1 NCelD=      1
         NCelK=      1 NCelE2=     1 NClLst=     1 CellRange=     0.0.
 One-electron integrals computed using PRISM.
 NBasis=     7 RedAO= T EigKep=  3.83D-01  NBF=     7
 NBsUse=     7 1.00D-06 EigRej= -1.00D+00 NBFU=     7
 Leave Link  302 at Thu Oct 18 15:47:21 2018, MaxMem=   536870912 cpu:         0.1
 (Enter /home/eliot/software/g09E01/l303.exe)
 DipDrv:  MaxL=1.
 Leave Link  303 at Thu Oct 18 15:47:21 2018, MaxMem=   536870912 cpu:         0.0
 (Enter /home/eliot/software/g09E01/l401.exe)
 Initial guess from the checkpoint file:  "gradients-qmjob.chk"
 B after Tr=     0.000000    0.000000    0.000000
         Rot=    1.000000    0.000000    0.000000    0.000000 Ang=   0.00 deg.
 Guess basis will be translated and rotated to current coordinates.
 JPrj=2 DoOrth=T DoCkMO=T.
 Leave Link  401 at Thu Oct 18 15:47:22 2018, MaxMem=   536870912 cpu:         0.0
 (Enter /home/eliot/software/g09E01/l502.exe)
 Closed shell SCF:
 Using DIIS extrapolation, IDIIS=  1040.
 Two-electron integral symmetry not used.
 Keep R1 ints in memory in canonical form, NReq=822719.
 IVT=       20131 IEndB=       20131 NGot=   536870912 MDV=   536850376
 LenX=   536850376 LenY=   536849494
 Requested convergence on RMS density matrix=1.00D-08 within 128 cycles.
 Requested convergence on MAX density matrix=1.00D-06.
 Requested convergence on             energy=1.00D-06.
 No special actions if energy rises.
 FoFCou: FMM=F IPFlag=           0 FMFlag=           0 FMFlg1=           0
         NFxFlg=           0 DoJE=F BraDBF=F KetDBF=F FulRan=T
         wScrn=  0.000000 ICntrl=     600 IOpCl=  0 I1Cent=           0 NGrid=           0
         NMat0=    1 NMatS0=     28 NMatT0=    0 NMatD0=    1 NMtDS0=    0 NMtDT0=    0
 Symmetry not used in FoFCou.

 Cycle   1  Pass 1  IDiag  1:
 E= -75.2601834846785    
 DIIS: error= 7.48D-09 at cycle   1 NSaved=   1.
 NSaved= 1 IEnMin= 1 EnMin= -75.2601834846785     IErMin= 1 ErrMin= 7.48D-09
 ErrMax= 7.48D-09  0.00D+00 EMaxC= 1.00D-01 BMatC= 7.25D-16 BMatP= 7.25D-16
 IDIUse=1 WtCom= 1.00D+00 WtEn= 0.00D+00
 Coeff-Com:  0.100D+01
 Coeff:      0.100D+01
 Gap=     0.987 Goal=   None    Shift=    0.000
 RMSDP=5.78D-09 MaxDP=2.50D-08              OVMax= 0.00D+00

 SCF Done:  E(RHF) =  -75.2601834847     A.U. after    1 cycles
            NFock=  1  Conv=0.58D-08     -V/T= 2.0083
 KE= 7.464346329653D+01 PE=-1.964386104688D+02 EE= 3.796939341499D+01
 Leave Link  502 at Thu Oct 18 15:47:22 2018, MaxMem=   536870912 cpu:         0.1
 (Enter /home/eliot/software/g09E01/l601.exe)
 Copying SCF densities to generalized density rwf, IOpCl= 0 IROHF=0.

 **********************************************************************

            Population analysis using the SCF density.

 **********************************************************************

 Alpha  occ. eigenvalues --  -20.24616  -1.26785  -0.51718  -0.50649  -0.39051
 Alpha virt. eigenvalues --    0.59697   0.65930
          Condensed to atoms (all electrons):
               1          2          3
     1  O    7.887402   0.222591   0.225950
     2  H    0.222591   0.675386  -0.061271
     3  H    0.225950  -0.061271   0.662673
 Mulliken charges:
               1
     1  O   -0.335942
     2  H    0.163294
     3  H    0.172648
 Sum of Mulliken charges =   0.00000
 Mulliken charges with hydrogens summed into heavy atoms:
               1
     1  O    0.000000
 Electronic spatial extent (au):  <R**2>=            125.5016
 Charge=              0.0000 electrons
 Dipole moment (field-independent basis, Debye):
    X=             -1.1876    Y=              1.3573    Z=              0.7687  Tot=              1.9605
 Quadrupole moment (field-independent basis, Debye-Ang):
   XX=             -9.4340   YY=             -5.5899   ZZ=             -5.1906
   XY=              1.8215   XZ=              1.3395   YZ=              0.4448
 Traceless Quadrupole moment (field-independent basis, Debye-Ang):
   XX=             -2.6958   YY=              1.1482   ZZ=              1.5476
   XY=              1.8215   XZ=              1.3395   YZ=              0.4448
 Octapole moment (field-independent basis, Debye-Ang**2):
  XXX=            -38.1316  YYY=              0.5577  ZZZ=             -0.9282  XYY=             -9.6306
  XXY=              2.5698  XXZ=              1.8718  XZZ=             -8.8944  YZZ=              0.3799
  YYZ=             -0.3373  XYZ=              0.7252
 Hexadecapole moment (field-independent basis, Debye-Ang**3):
 XXXX=           -124.1648 YYYY=             -4.8765 ZZZZ=             -5.4200 XXXY=              4.5005
 XXXZ=              1.5587 YYYX=              1.5824 YYYZ=             -0.3612 ZZZX=             -1.8657
 ZZZY=             -0.1794 XXYY=            -18.1857 XXZZ=            -17.1005 YYZZ=             -1.6286
 XXYZ=              0.9913 YYXZ=             -0.6502 ZZXY=              0.8350
 N-N= 8.565570272548D+00 E-N=-1.964386103854D+02  KE= 7.464346329653D+01
 No NMR shielding tensors so no spin-rotation constants.
 Leave Link  601 at Thu Oct 18 15:47:22 2018, MaxMem=   536870912 cpu:         0.1
 (Enter /home/eliot/software/g09E01/l602.exe)

 **********************************************************************

            Electrostatic Properties Using The SCF Density

 **********************************************************************

       Atomic Center    1 is at   1.806540 -0.139183  0.013311
       Atomic Center    2 is at   0.988035  0.403569 -0.169186
       Atomic Center    3 is at   1.632931  0.433762  0.805031
      Read-in Center    4 is at  -0.499380  0.857398 -0.026234
      Read-in Center    5 is at  -0.104829  0.968641 -0.840746
      Read-in Center    6 is at  -0.975936  0.009973 -0.164718
 -----------------------------------------------------------------

              Electrostatic Properties (Atomic Units)

 -----------------------------------------------------------------
    Center     Electric         -------- Electric Field --------
               Potential          X             Y             Z
 -----------------------------------------------------------------
    1 Atom    -22.061283      0.228104     -0.259150     -0.144880
    2 Atom     -1.049963     -0.070895     -0.002303     -0.105330
    3 Atom     -1.042108      0.067665      0.006933      0.109123
    4           0.037677     -0.021222      0.001796     -0.002816
    5           0.036774     -0.017809      0.005394     -0.018623
    6           0.017891     -0.007226     -0.006117     -0.002408
 -----------------------------------------------------------------
 Leave Link  602 at Thu Oct 18 15:47:22 2018, MaxMem=   536870912 cpu:         0.0
 (Enter /home/eliot/software/g09E01/l701.exe)
 Compute integral first derivatives.
 ... and contract with generalized density number  0.
 Leave Link  701 at Thu Oct 18 15:47:22 2018, MaxMem=   536870912 cpu:         0.1
 (Enter /home/eliot/software/g09E01/l702.exe)
 L702 exits ... SP integral derivatives will be done elsewhere.
 Leave Link  702 at Thu Oct 18 15:47:22 2018, MaxMem=   536870912 cpu:         0.0
 (Enter /home/eliot/software/g09E01/l703.exe)
 Compute integral first derivatives, UseDBF=F ICtDFT=           0.
 Integral derivatives from FoFJK, PRISM(SPDF).
 Calling FoFJK, ICntrl=      2127 FMM=F ISym2X=0 I1Cent= 0 IOpClX= 0 NMat=1 NMatS=1 NMatT=0.
 FoFJK:  IHMeth= 1 ICntrl=    2127 DoSepK=F KAlg= 0 I1Cent=   0 FoldK=F
 IRaf=         0 NMat=   1 IRICut=       1 DoRegI=T DoRafI=F ISym2E= 0.
 FoFCou: FMM=F IPFlag=           0 FMFlag=      100000 FMFlg1=         800
         NFxFlg=           0 DoJE=F BraDBF=F KetDBF=F FulRan=T
         wScrn=  0.000000 ICntrl=    2127 IOpCl=  0 I1Cent=           0 NGrid=           0
         NMat0=    1 NMatS0=      1 NMatT0=    0 NMatD0=    1 NMtDS0=    0 NMtDT0=    0
 Symmetry not used in FoFCou.
 Leave Link  703 at Thu Oct 18 15:47:22 2018, MaxMem=   536870912 cpu:         0.0
 (Enter /home/eliot/software/g09E01/l716.exe)
 Dipole        =-4.67250400D-01 5.33993991D-01 3.02424671D-01
 -------------------------------------------------------------------
 Center     Atomic                   Forces (Hartrees/Bohr)
 Number     Number              X              Y              Z
 -------------------------------------------------------------------
      1        8          -0.049233445    0.052744701    0.022841415
      2        1          -0.025488500   -0.028971327   -0.076244707
      3        1           0.067462745   -0.021974028    0.059824565
 -------------------------------------------------------------------
 Cartesian Forces:  Max     0.076244707 RMS     0.049038512
 Force constants in Cartesian coordinates: 
                1             2             3             4             5 
      1  0.505353D+00
      2 -0.224855D+00  0.492520D+00
      3 -0.185267D-01  0.151452D+00  0.480580D+00
      4 -0.253305D+00  0.179127D+00 -0.362358D-01  0.458185D+00
      5  0.170214D+00 -0.121324D+00  0.226155D-01 -0.166246D+00  0.343060D+00
      6 -0.524021D-01  0.353226D-01 -0.106414D-01  0.205333D-01 -0.360853D-01
      7 -0.197670D-01  0.457286D-01  0.547625D-01  0.274012D-01 -0.396843D-02
      8  0.546412D-01 -0.138915D+00 -0.174068D+00 -0.128811D-01  0.105453D-01
      9  0.709287D-01 -0.186775D+00 -0.237657D+00  0.157025D-01  0.134698D-01
                6             7             8             9 
      6  0.196103D+00
      7  0.318688D-01  0.224647D+00
      8  0.762658D-03 -0.417601D-01  0.360651D+00
      9  0.468198D-01 -0.866312D-01  0.173305D+00  0.423118D+00
 Leave Link  716 at Thu Oct 18 15:47:22 2018, MaxMem=   536870912 cpu:         0.0
 (Enter /home/eliot/software/g09E01/l103.exe)

 GradGradGradGradGradGradGradGradGradGradGradGradGradGradGradGradGradGrad
 Berny optimization.
 Search for a local minimum.
 Step number   1 out of a maximum of    2
 All quantities printed in internal units (Hartrees-Bohrs-Radians)
 Second derivative matrix not updated -- first step.
 The second derivative matrix:
                          X1        Y1        Z1        X2        Y2
           X1           0.50535
           Y1          -0.22486   0.49252
           Z1          -0.01853   0.15145   0.48058
           X2          -0.25330   0.17913  -0.03624   0.45818
           Y2           0.17021  -0.12132   0.02262  -0.16625   0.34306
           Z2          -0.05240   0.03532  -0.01064   0.02053  -0.03609
           X3          -0.01977   0.04573   0.05476   0.02740  -0.00397
           Y3           0.05464  -0.13891  -0.17407  -0.01288   0.01055
           Z3           0.07093  -0.18677  -0.23766   0.01570   0.01347
                          Z2        X3        Y3        Z3
           Z2           0.19610
           X3           0.03187   0.22465
           Y3           0.00076  -0.04176   0.36065
           Z3           0.04682  -0.08663   0.17331   0.42312
 ITU=  0
     Eigenvalues ---    0.11681   0.72589   0.97447
 Quadratic step=1.166D+00 exceeds max=3.000D-01 adjusted using Lamda=-3.380D-01.
 Angle between NR and scaled steps=   2.88 degrees.
 Angle between quadratic step and forces=  20.22 degrees.
 Linear search not attempted -- first point.
 Variable       Old X    -DE/DX   Delta X   Delta X   Delta X     New X
                                 (Linear)    (Quad)   (Total)
    X1        3.41387  -0.04923   0.00000  -0.03598  -0.03598   3.37789
    Y1       -0.26302   0.05274   0.00000   0.03956   0.03956  -0.22345
    Z1        0.02515   0.02284   0.00000   0.02047   0.02047   0.04562
    X2        1.86711  -0.02549   0.00000  -0.05342  -0.05342   1.81369
    Y2        0.76264  -0.02897   0.00000  -0.06279  -0.06279   0.69985
    Z2       -0.31972  -0.07624   0.00000  -0.19005  -0.19005  -0.50977
    X3        3.08579   0.06746   0.00000   0.15519   0.15519   3.24098
    Y3        0.81969  -0.02197   0.00000  -0.04912  -0.04912   0.77057
    Z3        1.52129   0.05982   0.00000   0.13216   0.13216   1.65345
         Item               Value     Threshold  Converged?
 Maximum Force            0.076245     0.000450     NO 
 RMS     Force            0.049039     0.000300     NO 
 Maximum Displacement     0.190050     0.001800     NO 
 RMS     Displacement     0.100086     0.001200     NO 
 Predicted change in Energy=-3.596120D-02
 GradGradGradGradGradGradGradGradGradGradGradGradGradGradGradGradGradGrad

 Leave Link  103 at Thu Oct 18 15:47:22 2018, MaxMem=   536870912 cpu:         0.0
 (Enter /home/eliot/software/g09E01/l9999.exe)

 Test job not archived.
 1\1\GINC-QC0019\Force\RHF\STO-3G\H2O1\ELIOT\18-Oct-2018\0\\#P force hf
 /sto-3g Charge NoSymm Prop=(Read,Field) punch=derivatives Guess=Read\\
 Generated by Zonkey\\0,1\O,1.806540058,-0.1391831199,0.0133111519\H,0.
 9880346509,0.4035694823,-0.1691861928\H,1.6329310185,0.4337622901,0.80
 50310186\\Version=ES64L-G09RevE.01\HF=-75.2601835\RMSD=5.779e-09\RMSF=
 4.904e-02\Dipole=-0.4672504,0.533994,0.3024247\Quadrupole=-2.0042897,0
 .853694,1.1505957,1.3542247,0.9958532,0.3307258\PG=CS [SG(H2O1)]\\@


 LIVE PURE, SPEAK TRUE, RIGHT WRONG, FOLLOW THE KING...
 ELSE, WHEREFORE BORN......
           IDYLLS OF THE KING, TENNYSON
 Job cpu time:       0 days  0 hours  0 minutes  0.6 seconds.
 File lengths (MBytes):  RWF=      5 Int=      0 D2E=      0 Chk=      1 Scr=      1
 Normal termination of Gaussian 09 at Thu Oct 18 15:47:22 2018.
