 Entering Gaussian System, Link 0=/home/eliot/software/g09E01/g09
 Initial command:
 /home/eliot/software/g09E01/l1.exe "/tmp/Gau-29523.inp" -scrdir="/tmp/"
 Entering Link 1 = /home/eliot/software/g09E01/l1.exe PID=     29525.
  
 Copyright (c) 1988,1990,1992,1993,1995,1998,2003,2009,2015,
            Gaussian, Inc.  All Rights Reserved.
  
 This is part of the Gaussian(R) 09 program.  It is based on
 the Gaussian(R) 03 system (copyright 2003, Gaussian, Inc.),
 the Gaussian(R) 98 system (copyright 1998, Gaussian, Inc.),
 the Gaussian(R) 94 system (copyright 1995, Gaussian, Inc.),
 the Gaussian 92(TM) system (copyright 1992, Gaussian, Inc.),
 the Gaussian 90(TM) system (copyright 1990, Gaussian, Inc.),
 the Gaussian 88(TM) system (copyright 1988, Gaussian, Inc.),
 the Gaussian 86(TM) system (copyright 1986, Carnegie Mellon
 University), and the Gaussian 82(TM) system (copyright 1983,
 Carnegie Mellon University). Gaussian is a federally registered
 trademark of Gaussian, Inc.
  
 This software contains proprietary and confidential information,
 including trade secrets, belonging to Gaussian, Inc.
  
 This software is provided under written license and may be
 used, copied, transmitted, or stored only in accord with that
 written license.
  
 The following legend is applicable only to US Government
 contracts under FAR:
  
                    RESTRICTED RIGHTS LEGEND
  
 Use, reproduction and disclosure by the US Government is
 subject to restrictions as set forth in subparagraphs (a)
 and (c) of the Commercial Computer Software - Restricted
 Rights clause in FAR 52.227-19.
  
 Gaussian, Inc.
 340 Quinnipiac St., Bldg. 40, Wallingford CT 06492
  
  
 ---------------------------------------------------------------
 Warning -- This program may not be used in any manner that
 competes with the business of Gaussian, Inc. or will provide
 assistance to any competitor of Gaussian, Inc.  The licensee
 of this program is prohibited from giving any competitor of
 Gaussian, Inc. access to this program.  By using this program,
 the user acknowledges that Gaussian, Inc. is engaged in the
 business of creating and licensing software in the field of
 computational chemistry and represents and warrants to the
 licensee that it is not a competitor of Gaussian, Inc. and that
 it will not use this program in any manner prohibited above.
 ---------------------------------------------------------------
  

 Cite this work as:
 Gaussian 09, Revision E.01,
 M. J. Frisch, G. W. Trucks, H. B. Schlegel, G. E. Scuseria, 
 M. A. Robb, J. R. Cheeseman, G. Scalmani, V. Barone, B. Mennucci, 
 G. A. Petersson, H. Nakatsuji, M. Caricato, X. Li, H. P. Hratchian, 
 A. F. Izmaylov, J. Bloino, G. Zheng, J. L. Sonnenberg, M. Hada, 
 M. Ehara, K. Toyota, R. Fukuda, J. Hasegawa, M. Ishida, T. Nakajima, 
 Y. Honda, O. Kitao, H. Nakai, T. Vreven, J. A. Montgomery, Jr., 
 J. E. Peralta, F. Ogliaro, M. Bearpark, J. J. Heyd, E. Brothers, 
 K. N. Kudin, V. N. Staroverov, T. Keith, R. Kobayashi, J. Normand, 
 K. Raghavachari, A. Rendell, J. C. Burant, S. S. Iyengar, J. Tomasi, 
 M. Cossi, N. Rega, J. M. Millam, M. Klene, J. E. Knox, J. B. Cross, 
 V. Bakken, C. Adamo, J. Jaramillo, R. Gomperts, R. E. Stratmann, 
 O. Yazyev, A. J. Austin, R. Cammi, C. Pomelli, J. W. Ochterski, 
 R. L. Martin, K. Morokuma, V. G. Zakrzewski, G. A. Voth, 
 P. Salvador, J. J. Dannenberg, S. Dapprich, A. D. Daniels, 
 O. Farkas, J. B. Foresman, J. V. Ortiz, J. Cioslowski, 
 and D. J. Fox, Gaussian, Inc., Wallingford CT, 2013.
 
 ******************************************
 Gaussian 09:  ES64L-G09RevE.01 30-Nov-2015
                 7-Nov-2018 
 ******************************************
 %nproc=1
 Will use up to    1 processors via shared memory.
 %mem=4GB
 %Chk=gradients-qmjob.chk
 ----------------------------------------------------------------------
 #P force hf/6-31g Charge NoSymm Prop=(Read,Field) punch=derivatives Gu
 ess=Read
 ----------------------------------------------------------------------
 1/10=7,18=10,28=-2,30=1,38=1,125=101/1,3;
 2/12=2,15=1,17=6,18=5,29=2,40=1/2;
 3/5=1,6=6,11=9,16=1,25=1,30=1,71=1,116=-2/1,2,3;
 4/5=1/1;
 5/5=2,38=6/2;
 6/7=2,8=2,9=2,10=2,14=2,15=1,28=1/1,2;
 7/7=1,16=-2,29=1,30=1/1,2,3,16;
 1/10=7,18=10,28=-2,30=1/3;
 99/10=4,12=1/99;
 Leave Link    1 at Wed Nov  7 16:06:06 2018, MaxMem=   536870912 cpu:         0.0
 (Enter /home/eliot/software/g09E01/l101.exe)
 -------------------
 Generated by Zonkey
 -------------------
 Symbolic Z-matrix:
 Charge =  0 Multiplicity = 1
 O                     1.68596  -0.1003    0.00001 
 H                     1.62896   0.42363  -0.79052 
 H                     1.62906   0.43279   0.7844 
 
 NAtoms=      3 NQM=        3 NQMF=       0 NMMI=      0 NMMIF=      0
                NMic=       0 NMicF=      0.
                    Isotopes and Nuclear Properties:
 (Nuclear quadrupole moments (NQMom) in fm**2, nuclear magnetic moments (NMagM)
  in nuclear magnetons)

  Atom         1           2           3
 IAtWgt=          16           1           1
 AtmWgt=  15.9949146   1.0078250   1.0078250
 NucSpn=           0           1           1
 AtZEff=   0.0000000   0.0000000   0.0000000
 NQMom=    0.0000000   0.0000000   0.0000000
 NMagM=    0.0000000   2.7928460   2.7928460
 AtZNuc=   8.0000000   1.0000000   1.0000000
 Background charge distribution read from input stream:
 Point Charges:
 XYZ=   -1.6392    0.0889    0.0000 Q=   -0.8340 A=    0.0000 R=    0.0000 C=    0.0000
 XYZ=   -0.6814    0.0949    0.0001 Q=    0.4170 A=    0.0000 R=    0.0000 C=    0.0000
 XYZ=   -1.8674   -0.8410    0.0040 Q=    0.4170 A=    0.0000 R=    0.0000 C=    0.0000
 Pt Chg Charge=              0.0000 electrons
 Pt Chg Dipole moment (Debye):
    X=              1.4616    Y=             -1.8505    Z=              0.0084  Tot=              2.3581
 Pt Chg Quadrupole moment (Debye-Ang):
   XX=             -2.8500   YY=              1.4029   ZZ=              0.0000
   XY=              3.5997   XZ=             -0.0154   YZ=             -0.0067
 Pt Chg Traceless Quadrupole moment (Debye-Ang):
   XX=             -2.3677   YY=              1.8853   ZZ=              0.4824
   XY=              3.5997   XZ=             -0.0154   YZ=             -0.0067
 Pt Chg Octapole moment (Debye-Ang**2):
  XXX=              3.9693  YYY=             -1.1924  ZZZ=              0.0000  XYY=             -2.6055
  XXY=             -6.7425  XXZ=              0.0284  XZZ=             -0.0001  YZZ=              0.0000
  YYZ=              0.0057  XYZ=              0.0125
 Pt Chg Hexadecapole moment (Debye-Ang**3):
 XXXX=             -4.1384 YYYY=              1.0017 ZZZZ=              0.0000 XXXY=             12.4770
 XXXZ=             -0.0528 YYYX=              2.2279 YYYZ=             -0.0048 ZZZX=              0.0000
 ZZZY=              0.0000 XXYY=              4.8627 XXZZ=              0.0001 YYZZ=              0.0000
 XXYZ=             -0.0234 YYXZ=             -0.0106 ZZXY=              0.0001
 Leave Link  101 at Wed Nov  7 16:06:06 2018, MaxMem=   536870912 cpu:         0.1
 (Enter /home/eliot/software/g09E01/l103.exe)

 GradGradGradGradGradGradGradGradGradGradGradGradGradGradGradGradGradGrad
 Berny optimization.
 Initialization pass.
 Trust Radius=3.00D-01 FncErr=1.00D-07 GrdErr=1.00D-07
 Number of steps in this run=      2 maximum allowed number of steps=      2.
 GradGradGradGradGradGradGradGradGradGradGradGradGradGradGradGradGradGrad

 Leave Link  103 at Wed Nov  7 16:06:06 2018, MaxMem=   536870912 cpu:         0.0
 (Enter /home/eliot/software/g09E01/l202.exe)
 ---------------------------------------------------------------------------------------------------
                            Z-MATRIX (ANGSTROMS AND DEGREES)
   CD    Cent   Atom    N1       Length/X        N2       Alpha/Y        N3        Beta/Z          J
 ---------------------------------------------------------------------------------------------------
      1      1  O        0   1.685958         -0.100302          0.000013
      2      2  H        0   1.628959          0.423630         -0.790521
      3      3  H        0   1.629058          0.432794          0.784403
 ---------------------------------------------------------------------------------------------------
                         Z-Matrix orientation:                         
 ---------------------------------------------------------------------
 Center     Atomic      Atomic             Coordinates (Angstroms)
 Number     Number       Type             X           Y           Z
 ---------------------------------------------------------------------
      1          8           0        1.685958   -0.100302    0.000013
      2          1           0        1.628959    0.423630   -0.790521
      3          1           0        1.629058    0.432794    0.784403
 ---------------------------------------------------------------------
                    Distance matrix (angstroms):
                    1          2          3
     1  O    0.000000
     2  H    0.950104   0.000000
     3  H    0.950104   1.574951   0.000000
 Symmetry turned off by external request.
 Stoichiometry    H2O
 Framework group  C2V[C2(O),SGV(H2)]
 Deg. of freedom     2
 Full point group                 C2V     NOp   4
 Rotational constants (GHZ):    999.0943511    404.3225338    287.8377508
 Leave Link  202 at Wed Nov  7 16:06:06 2018, MaxMem=   536870912 cpu:         0.0
 (Enter /home/eliot/software/g09E01/l301.exe)
 Standard basis: 6-31G (6D, 7F)
 Ernie: Thresh=  0.10000D-02 Tol=  0.10000D-05 Strict=F.
    13 basis functions,    30 primitive gaussians,    13 cartesian basis functions
     5 alpha electrons        5 beta electrons
       nuclear repulsion energy         9.2474798217 Hartrees.
 IExCor=    0 DFT=F Ex=HF Corr=None ExCW=0 ScaHFX=  1.000000
 ScaDFX=  1.000000  1.000000  1.000000  1.000000 ScalE2=  1.000000  1.000000
 IRadAn=      0 IRanWt=     -1 IRanGd=            0 ICorTp=0 IEmpDi=  4
 NAtoms=    3 NActive=    3 NUniq=    3 SFac= 1.00D+00 NAtFMM=   60 NAOKFM=F Big=F
 Integral buffers will be    131072 words long.
 Raffenetti 1 integral format.
 Two-electron integral symmetry is turned off.
 Background charge distribution read from rwf.
 PtFMM for NChg=         6 BoxLen=    40.00 Levels= 0 LMax=20 SMax=     6.7 ICnFMM=     1:
 Self energy of the charges =        -0.3234307637 a.u.
 MM   energy of the charges =         0.0000000000 a.u.
 Nuclei-charges interaction =         0.2034584261 a.u.
 Nuclear repulsion after external point charges =        9.1275074841 Hartrees.
 Leave Link  301 at Wed Nov  7 16:06:06 2018, MaxMem=   536870912 cpu:         0.0
 (Enter /home/eliot/software/g09E01/l302.exe)
 NPDir=0 NMtPBC=     1 NCelOv=     1 NCel=       1 NClECP=     1 NCelD=      1
         NCelK=      1 NCelE2=     1 NClLst=     1 CellRange=     0.0.
 One-electron integrals computed using PRISM.
 NBasis=    13 RedAO= T EigKep=  6.88D-02  NBF=    13
 NBsUse=    13 1.00D-06 EigRej= -1.00D+00 NBFU=    13
 Leave Link  302 at Wed Nov  7 16:06:06 2018, MaxMem=   536870912 cpu:         0.1
 (Enter /home/eliot/software/g09E01/l303.exe)
 DipDrv:  MaxL=1.
 Leave Link  303 at Wed Nov  7 16:06:06 2018, MaxMem=   536870912 cpu:         0.0
 (Enter /home/eliot/software/g09E01/l401.exe)
 Initial guess from the checkpoint file:  "gradients-qmjob.chk"
 B after Tr=    -0.000635    0.003739   -0.000021
         Rot=    1.000000    0.000000    0.000003    0.000588 Ang=   0.07 deg.
 Guess basis will be translated and rotated to current coordinates.
 JPrj=2 DoOrth=T DoCkMO=T.
 Leave Link  401 at Wed Nov  7 16:06:06 2018, MaxMem=   536870912 cpu:         0.0
 (Enter /home/eliot/software/g09E01/l502.exe)
 Closed shell SCF:
 Using DIIS extrapolation, IDIIS=  1040.
 Two-electron integral symmetry not used.
 Keep R1 ints in memory in canonical form, NReq=829048.
 IVT=       20131 IEndB=       20131 NGot=   536870912 MDV=   536846596
 LenX=   536846596 LenY=   536845714
 Requested convergence on RMS density matrix=1.00D-08 within 128 cycles.
 Requested convergence on MAX density matrix=1.00D-06.
 Requested convergence on             energy=1.00D-06.
 No special actions if energy rises.
 FoFCou: FMM=F IPFlag=           0 FMFlag=           0 FMFlg1=           0
         NFxFlg=           0 DoJE=F BraDBF=F KetDBF=F FulRan=T
         wScrn=  0.000000 ICntrl=     600 IOpCl=  0 I1Cent=           0 NGrid=           0
         NMat0=    1 NMatS0=     91 NMatT0=    0 NMatD0=    1 NMtDS0=    0 NMtDT0=    0
 Symmetry not used in FoFCou.

 Cycle   1  Pass 1  IDiag  1:
 E= -76.3133774854587    
 DIIS: error= 2.20D-06 at cycle   1 NSaved=   1.
 NSaved= 1 IEnMin= 1 EnMin= -76.3133774854587     IErMin= 1 ErrMin= 2.20D-06
 ErrMax= 2.20D-06  0.00D+00 EMaxC= 1.00D-01 BMatC= 1.16D-10 BMatP= 1.16D-10
 IDIUse=1 WtCom= 1.00D+00 WtEn= 0.00D+00
 Coeff-Com:  0.100D+01
 Coeff:      0.100D+01
 Gap=     0.712 Goal=   None    Shift=    0.000
 RMSDP=1.23D-06 MaxDP=3.30D-06              OVMax= 6.05D-06

 Cycle   2  Pass 1  IDiag  1:
 E= -76.3133774856867     Delta-E=       -0.000000000228 Rises=F Damp=F
 DIIS: error= 1.13D-06 at cycle   2 NSaved=   2.
 NSaved= 2 IEnMin= 2 EnMin= -76.3133774856867     IErMin= 2 ErrMin= 1.13D-06
 ErrMax= 1.13D-06  0.00D+00 EMaxC= 1.00D-01 BMatC= 1.66D-11 BMatP= 1.16D-10
 IDIUse=1 WtCom= 1.00D+00 WtEn= 0.00D+00
 Coeff-Com: -0.292D+00 0.129D+01
 Coeff:     -0.292D+00 0.129D+01
 Gap=     0.712 Goal=   None    Shift=    0.000
 RMSDP=5.48D-07 MaxDP=1.89D-06 DE=-2.28D-10 OVMax= 2.81D-06

 Cycle   3  Pass 1  IDiag  1:
 E= -76.3133774857194     Delta-E=       -0.000000000033 Rises=F Damp=F
 DIIS: error= 4.02D-07 at cycle   3 NSaved=   3.
 NSaved= 3 IEnMin= 3 EnMin= -76.3133774857194     IErMin= 3 ErrMin= 4.02D-07
 ErrMax= 4.02D-07  0.00D+00 EMaxC= 1.00D-01 BMatC= 2.39D-12 BMatP= 1.66D-11
 IDIUse=1 WtCom= 1.00D+00 WtEn= 0.00D+00
 Coeff-Com: -0.147D+00 0.356D+00 0.792D+00
 Coeff:     -0.147D+00 0.356D+00 0.792D+00
 Gap=     0.712 Goal=   None    Shift=    0.000
 RMSDP=1.43D-07 MaxDP=5.49D-07 DE=-3.27D-11 OVMax= 8.73D-07

 Cycle   4  Pass 1  IDiag  1:
 E= -76.3133774857225     Delta-E=       -0.000000000003 Rises=F Damp=F
 DIIS: error= 1.14D-07 at cycle   4 NSaved=   4.
 NSaved= 4 IEnMin= 4 EnMin= -76.3133774857225     IErMin= 4 ErrMin= 1.14D-07
 ErrMax= 1.14D-07  0.00D+00 EMaxC= 1.00D-01 BMatC= 1.47D-13 BMatP= 2.39D-12
 IDIUse=1 WtCom= 1.00D+00 WtEn= 0.00D+00
 Coeff-Com:  0.579D-01-0.203D+00-0.138D+00 0.128D+01
 Coeff:      0.579D-01-0.203D+00-0.138D+00 0.128D+01
 Gap=     0.712 Goal=   None    Shift=    0.000
 RMSDP=6.35D-08 MaxDP=1.84D-07 DE=-3.10D-12 OVMax= 3.75D-07

 Cycle   5  Pass 1  IDiag  1:
 E= -76.3133774857229     Delta-E=        0.000000000000 Rises=F Damp=F
 DIIS: error= 1.86D-08 at cycle   5 NSaved=   5.
 NSaved= 5 IEnMin= 5 EnMin= -76.3133774857229     IErMin= 5 ErrMin= 1.86D-08
 ErrMax= 1.86D-08  0.00D+00 EMaxC= 1.00D-01 BMatC= 4.30D-15 BMatP= 1.47D-13
 IDIUse=1 WtCom= 1.00D+00 WtEn= 0.00D+00
 Coeff-Com: -0.231D-01 0.857D-01 0.437D-01-0.606D+00 0.150D+01
 Coeff:     -0.231D-01 0.857D-01 0.437D-01-0.606D+00 0.150D+01
 Gap=     0.712 Goal=   None    Shift=    0.000
 RMSDP=1.38D-08 MaxDP=4.99D-08 DE=-3.98D-13 OVMax= 6.58D-08

 Cycle   6  Pass 1  IDiag  1:
 E= -76.3133774857230     Delta-E=        0.000000000000 Rises=F Damp=F
 DIIS: error= 2.59D-09 at cycle   6 NSaved=   6.
 NSaved= 6 IEnMin= 6 EnMin= -76.3133774857230     IErMin= 6 ErrMin= 2.59D-09
 ErrMax= 2.59D-09  0.00D+00 EMaxC= 1.00D-01 BMatC= 8.12D-17 BMatP= 4.30D-15
 IDIUse=1 WtCom= 1.00D+00 WtEn= 0.00D+00
 Coeff-Com:  0.311D-02-0.120D-01-0.482D-02 0.882D-01-0.323D+00 0.125D+01
 Coeff:      0.311D-02-0.120D-01-0.482D-02 0.882D-01-0.323D+00 0.125D+01
 Gap=     0.712 Goal=   None    Shift=    0.000
 RMSDP=1.95D-09 MaxDP=7.14D-09 DE=-1.42D-14 OVMax= 1.12D-08

 SCF Done:  E(RHF) =  -76.3133774857     A.U. after    6 cycles
            NFock=  6  Conv=0.19D-08     -V/T= 2.0040
 KE= 7.601006311375D+01 PE=-1.993393088304D+02 EE= 3.788836074677D+01
 Leave Link  502 at Wed Nov  7 16:06:06 2018, MaxMem=   536870912 cpu:         0.0
 (Enter /home/eliot/software/g09E01/l601.exe)
 Copying SCF densities to generalized density rwf, IOpCl= 0 IROHF=0.

 **********************************************************************

            Population analysis using the SCF density.

 **********************************************************************

 Alpha  occ. eigenvalues --  -20.57286  -1.37166  -0.74553  -0.56674  -0.51948
 Alpha virt. eigenvalues --    0.19235   0.28958   1.09054   1.13837   1.14539
 Alpha virt. eigenvalues --    1.18561   1.37142   1.65480
          Condensed to atoms (all electrons):
               1          2          3
     1  O    8.298315   0.263778   0.263777
     2  H    0.263778   0.350113  -0.026830
     3  H    0.263777  -0.026830   0.350123
 Mulliken charges:
               1
     1  O   -0.825870
     2  H    0.412939
     3  H    0.412931
 Sum of Mulliken charges =   0.00000
 Mulliken charges with hydrogens summed into heavy atoms:
               1
     1  O    0.000000
 Electronic spatial extent (au):  <R**2>=            119.6615
 Charge=              0.0000 electrons
 Dipole moment (field-independent basis, Debye):
    X=             -0.2401    Y=              2.5098    Z=             -0.0146  Tot=              2.5213
 Quadrupole moment (field-independent basis, Debye-Ang):
   XX=             -8.0007   YY=             -6.2836   ZZ=             -3.8440
   XY=              4.1067   XZ=             -0.0236   YZ=              0.0128
 Traceless Quadrupole moment (field-independent basis, Debye-Ang):
   XX=             -1.9579   YY=             -0.2408   ZZ=              2.1988
   XY=              4.1067   XZ=             -0.0236   YZ=              0.0128
 Octapole moment (field-independent basis, Debye-Ang**2):
  XXX=            -38.2771  YYY=              1.3941  ZZZ=             -0.0165  XYY=            -10.5796
  XXY=              7.1141  XXZ=             -0.0362  XZZ=             -6.5696  YZZ=              1.3189
  YYZ=              0.0108  XYZ=              0.0210
 Hexadecapole moment (field-independent basis, Debye-Ang**3):
 XXXX=           -131.4870 YYYY=             -5.9564 ZZZZ=             -5.2127 XXXY=             13.0317
 XXXZ=             -0.0524 YYYX=              2.3682 YYYZ=              0.0053 ZZZX=             -0.0266
 ZZZY=             -0.0040 XXYY=            -19.7024 XXZZ=            -13.2425 YYZZ=             -1.6373
 XXYZ=              0.0337 YYXZ=              0.0175 ZZXY=              2.1681
 N-N= 9.127507484125D+00 E-N=-1.993393088310D+02  KE= 7.601006311375D+01
 No NMR shielding tensors so no spin-rotation constants.
 Leave Link  601 at Wed Nov  7 16:06:07 2018, MaxMem=   536870912 cpu:         0.1
 (Enter /home/eliot/software/g09E01/l602.exe)

 **********************************************************************

            Electrostatic Properties Using The SCF Density

 **********************************************************************

       Atomic Center    1 is at   1.685958 -0.100302  0.000013
       Atomic Center    2 is at   1.628959  0.423630 -0.790521
       Atomic Center    3 is at   1.629058  0.432794  0.784403
      Read-in Center    4 is at  -1.639242  0.088920 -0.000033
      Read-in Center    5 is at  -0.681371  0.094922  0.000142
      Read-in Center    6 is at  -1.867361 -0.840966  0.003996
 -----------------------------------------------------------------

              Electrostatic Properties (Atomic Units)

 -----------------------------------------------------------------
    Center     Electric         -------- Electric Field --------
               Potential          X             Y             Z
 -----------------------------------------------------------------
    1 Atom    -22.335646      0.027200     -0.249831      0.001453
    2 Atom     -0.975522     -0.004802      0.040736     -0.098384
    3 Atom     -0.975527     -0.004790      0.041880      0.097907
    4          -0.003240      0.001873     -0.003989      0.000022
    5          -0.010269      0.007449     -0.010921      0.000053
    6          -0.007429      0.003325     -0.002066      0.000013
 -----------------------------------------------------------------
 Leave Link  602 at Wed Nov  7 16:06:07 2018, MaxMem=   536870912 cpu:         0.0
 (Enter /home/eliot/software/g09E01/l701.exe)
 Compute integral first derivatives.
 ... and contract with generalized density number  0.
 Leave Link  701 at Wed Nov  7 16:06:07 2018, MaxMem=   536870912 cpu:         0.1
 (Enter /home/eliot/software/g09E01/l702.exe)
 L702 exits ... SP integral derivatives will be done elsewhere.
 Leave Link  702 at Wed Nov  7 16:06:07 2018, MaxMem=   536870912 cpu:         0.0
 (Enter /home/eliot/software/g09E01/l703.exe)
 Compute integral first derivatives, UseDBF=F ICtDFT=           0.
 Integral derivatives from FoFJK, PRISM(SPDF).
 Calling FoFJK, ICntrl=      2127 FMM=F ISym2X=0 I1Cent= 0 IOpClX= 0 NMat=1 NMatS=1 NMatT=0.
 FoFJK:  IHMeth= 1 ICntrl=    2127 DoSepK=F KAlg= 0 I1Cent=   0 FoldK=F
 IRaf=         0 NMat=   1 IRICut=       1 DoRegI=T DoRafI=F ISym2E= 0.
 FoFCou: FMM=F IPFlag=           0 FMFlag=      100000 FMFlg1=         800
         NFxFlg=           0 DoJE=F BraDBF=F KetDBF=F FulRan=T
         wScrn=  0.000000 ICntrl=    2127 IOpCl=  0 I1Cent=           0 NGrid=           0
         NMat0=    1 NMatS0=      1 NMatT0=    0 NMatD0=    1 NMtDS0=    0 NMtDT0=    0
 Symmetry not used in FoFCou.
 Leave Link  703 at Wed Nov  7 16:06:07 2018, MaxMem=   536870912 cpu:         0.1
 (Enter /home/eliot/software/g09E01/l716.exe)
 Dipole        =-9.44580599D-02 9.87412869D-01-5.75336467D-03
 -------------------------------------------------------------------
 Center     Atomic                   Forces (Hartrees/Bohr)
 Number     Number              X              Y              Z
 -------------------------------------------------------------------
      1        8          -0.009318185   -0.000007642    0.000001971
      2        1           0.003191794    0.001046114   -0.000172575
      3        1           0.003195860    0.001050079    0.000161283
 -------------------------------------------------------------------
 Cartesian Forces:  Max     0.009318185 RMS     0.003487796
 Force constants in Cartesian coordinates: 
                1             2             3             4             5 
      1  0.285987D+00
      2 -0.329204D-01  0.587979D+00
      3  0.230986D-03  0.188317D-02  0.911135D+00
      4 -0.177659D-02  0.163418D-01 -0.228488D-01  0.284152D+00
      5  0.163355D-01 -0.150261D+00  0.210025D+00 -0.157374D-01  0.427117D+00
      6 -0.238279D-01  0.219112D+00 -0.316852D+00  0.233295D-01 -0.215030D+00
      7 -0.177073D-02  0.165786D-01  0.226179D-01  0.647945D-04 -0.598150D-03
      8  0.165849D-01 -0.155278D+00 -0.211909D+00 -0.604421D-03  0.558335D-02
      9  0.235969D-01 -0.220995D+00 -0.311843D+00 -0.480680D-03  0.500433D-02
                6             7             8             9 
      6  0.514478D+00
      7  0.498390D-03  0.284146D+00
      8 -0.408220D-02 -0.159805D-01  0.432134D+00
      9  0.848139D-01 -0.231162D-01  0.215991D+00  0.509469D+00
 Leave Link  716 at Wed Nov  7 16:06:07 2018, MaxMem=   536870912 cpu:         0.0
 (Enter /home/eliot/software/g09E01/l103.exe)

 GradGradGradGradGradGradGradGradGradGradGradGradGradGradGradGradGradGrad
 Berny optimization.
 Search for a local minimum.
 Step number   1 out of a maximum of    2
 All quantities printed in internal units (Hartrees-Bohrs-Radians)
 Second derivative matrix not updated -- first step.
 The second derivative matrix:
                          X1        Y1        Z1        X2        Y2
           X1           0.28599
           Y1          -0.03292   0.58798
           Z1           0.00023   0.00188   0.91113
           X2          -0.00178   0.01634  -0.02285   0.28415
           Y2           0.01634  -0.15026   0.21003  -0.01574   0.42712
           Z2          -0.02383   0.21911  -0.31685   0.02333  -0.21503
           X3          -0.00177   0.01658   0.02262   0.00006  -0.00060
           Y3           0.01658  -0.15528  -0.21191  -0.00060   0.00558
           Z3           0.02360  -0.22100  -0.31184  -0.00048   0.00500
                          Z2        X3        Y3        Z3
           Z2           0.51448
           X3           0.00050   0.28415
           Y3          -0.00408  -0.01598   0.43213
           Z3           0.08481  -0.02312   0.21599   0.50947
 ITU=  0
     Eigenvalues ---    0.18021   0.88968   1.14452
 Angle between quadratic step and forces=  87.55 degrees.
 Linear search not attempted -- first point.
 Variable       Old X    -DE/DX   Delta X   Delta X   Delta X     New X
                                 (Linear)    (Quad)   (Total)
    X1        3.18600  -0.00932   0.00000   0.00003   0.00003   3.18603
    Y1       -0.18954  -0.00001   0.00000  -0.00030  -0.00030  -0.18985
    Z1        0.00002   0.00000   0.00000   0.00000   0.00000   0.00003
    X2        3.07829   0.00319   0.00000  -0.00005  -0.00005   3.07824
    Y2        0.80055   0.00105   0.00000   0.00043   0.00043   0.80097
    Z2       -1.49387  -0.00017   0.00000  -0.00001  -0.00001  -1.49388
    X3        3.07847   0.00320   0.00000  -0.00005  -0.00005   3.07843
    Y3        0.81786   0.00105   0.00000   0.00043   0.00043   0.81829
    Z3        1.48231   0.00016   0.00000   0.00001   0.00001   1.48231
         Item               Value     Threshold  Converged?
 Maximum Force            0.009318     0.000450     NO 
 RMS     Force            0.003488     0.000300     NO 
 Maximum Displacement     0.000428     0.001800     YES
 RMS     Displacement     0.000227     0.001200     YES
 Predicted change in Energy=-1.522111D-07
 GradGradGradGradGradGradGradGradGradGradGradGradGradGradGradGradGradGrad

 Leave Link  103 at Wed Nov  7 16:06:07 2018, MaxMem=   536870912 cpu:         0.0
 (Enter /home/eliot/software/g09E01/l9999.exe)

 Test job not archived.
 1\1\GINC-QC0019\Force\RHF\6-31G\H2O1\ELIOT\07-Nov-2018\0\\#P force hf/
 6-31g Charge NoSymm Prop=(Read,Field) punch=derivatives Guess=Read\\Ge
 nerated by Zonkey\\0,1\O,1.6859578887,-0.1003015149,0.0000129542\H,1.6
 289588039,0.4236304658,-0.790521248\H,1.6290583249,0.4327944805,0.7844
 031045\\Version=ES64L-G09RevE.01\HF=-76.3133775\RMSD=1.949e-09\RMSF=3.
 488e-03\Dipole=-0.0944581,0.9874129,-0.0057534\Quadrupole=-1.455672,-0
 .1790627,1.6347347,3.0532309,-0.017525,0.0094865\PG=C02V [C2(O1),SGV(H
 2)]\\@


 THESE ARE THE TIMES THAT TRY MENS SOULS.
 THE SUMMER SOLDIER AND THE SUNSHINE PATRIOT WILL IN THIS CRISIS,
 SHRINK FROM THE SERVICE OF HIS COUNTRY.  BUT HE THAT STANDS NOW,
 DESERVES THE LOVE AND THANKS OF MAN AND WOMAN.
 TYRANNY, LIKE HELL, IS NOT EASILY CONQUERED,
 YET WE HAVE THIS CONSOLATION WITH US,
 THAT THE HARDER THE CONFLICT, THE MORE GLORIOUS THE TRIUMPH.
 WHAT WE OBTAIN TOO CHEAP, WE ESTEEM TOO LIGHTLY, 
 'TIS DEARNESS ONLY THAT GIVES EVERYTHING ITS VALUE.

                                              -- TOM PAINE
 Job cpu time:       0 days  0 hours  0 minutes  0.7 seconds.
 File lengths (MBytes):  RWF=      5 Int=      0 D2E=      0 Chk=      1 Scr=      1
 Normal termination of Gaussian 09 at Wed Nov  7 16:06:07 2018.
