 Entering Gaussian System, Link 0=/home/eliot/software/g09E01/g09
 Initial command:
 /home/eliot/software/g09E01/l1.exe "/tmp/Gau-21818.inp" -scrdir="/tmp/"
 Entering Link 1 = /home/eliot/software/g09E01/l1.exe PID=     21820.
  
 Copyright (c) 1988,1990,1992,1993,1995,1998,2003,2009,2015,
            Gaussian, Inc.  All Rights Reserved.
  
 This is part of the Gaussian(R) 09 program.  It is based on
 the Gaussian(R) 03 system (copyright 2003, Gaussian, Inc.),
 the Gaussian(R) 98 system (copyright 1998, Gaussian, Inc.),
 the Gaussian(R) 94 system (copyright 1995, Gaussian, Inc.),
 the Gaussian 92(TM) system (copyright 1992, Gaussian, Inc.),
 the Gaussian 90(TM) system (copyright 1990, Gaussian, Inc.),
 the Gaussian 88(TM) system (copyright 1988, Gaussian, Inc.),
 the Gaussian 86(TM) system (copyright 1986, Carnegie Mellon
 University), and the Gaussian 82(TM) system (copyright 1983,
 Carnegie Mellon University). Gaussian is a federally registered
 trademark of Gaussian, Inc.
  
 This software contains proprietary and confidential information,
 including trade secrets, belonging to Gaussian, Inc.
  
 This software is provided under written license and may be
 used, copied, transmitted, or stored only in accord with that
 written license.
  
 The following legend is applicable only to US Government
 contracts under FAR:
  
                    RESTRICTED RIGHTS LEGEND
  
 Use, reproduction and disclosure by the US Government is
 subject to restrictions as set forth in subparagraphs (a)
 and (c) of the Commercial Computer Software - Restricted
 Rights clause in FAR 52.227-19.
  
 Gaussian, Inc.
 340 Quinnipiac St., Bldg. 40, Wallingford CT 06492
  
  
 ---------------------------------------------------------------
 Warning -- This program may not be used in any manner that
 competes with the business of Gaussian, Inc. or will provide
 assistance to any competitor of Gaussian, Inc.  The licensee
 of this program is prohibited from giving any competitor of
 Gaussian, Inc. access to this program.  By using this program,
 the user acknowledges that Gaussian, Inc. is engaged in the
 business of creating and licensing software in the field of
 computational chemistry and represents and warrants to the
 licensee that it is not a competitor of Gaussian, Inc. and that
 it will not use this program in any manner prohibited above.
 ---------------------------------------------------------------
  

 Cite this work as:
 Gaussian 09, Revision E.01,
 M. J. Frisch, G. W. Trucks, H. B. Schlegel, G. E. Scuseria, 
 M. A. Robb, J. R. Cheeseman, G. Scalmani, V. Barone, B. Mennucci, 
 G. A. Petersson, H. Nakatsuji, M. Caricato, X. Li, H. P. Hratchian, 
 A. F. Izmaylov, J. Bloino, G. Zheng, J. L. Sonnenberg, M. Hada, 
 M. Ehara, K. Toyota, R. Fukuda, J. Hasegawa, M. Ishida, T. Nakajima, 
 Y. Honda, O. Kitao, H. Nakai, T. Vreven, J. A. Montgomery, Jr., 
 J. E. Peralta, F. Ogliaro, M. Bearpark, J. J. Heyd, E. Brothers, 
 K. N. Kudin, V. N. Staroverov, T. Keith, R. Kobayashi, J. Normand, 
 K. Raghavachari, A. Rendell, J. C. Burant, S. S. Iyengar, J. Tomasi, 
 M. Cossi, N. Rega, J. M. Millam, M. Klene, J. E. Knox, J. B. Cross, 
 V. Bakken, C. Adamo, J. Jaramillo, R. Gomperts, R. E. Stratmann, 
 O. Yazyev, A. J. Austin, R. Cammi, C. Pomelli, J. W. Ochterski, 
 R. L. Martin, K. Morokuma, V. G. Zakrzewski, G. A. Voth, 
 P. Salvador, J. J. Dannenberg, S. Dapprich, A. D. Daniels, 
 O. Farkas, J. B. Foresman, J. V. Ortiz, J. Cioslowski, 
 and D. J. Fox, Gaussian, Inc., Wallingford CT, 2013.
 
 ******************************************
 Gaussian 09:  ES64L-G09RevE.01 30-Nov-2015
                13-Nov-2018 
 ******************************************
 %nproc=4
 Will use up to    4 processors via shared memory.
 %mem=4GB
 %Chk=gradients-qmjob.chk
 ----------------------------------------------------------------------
 #P force hf/6-31g Charge NoSymm Prop=(Read,Field) punch=derivatives Gu
 ess=Read
 ----------------------------------------------------------------------
 1/10=7,18=10,28=-2,30=1,38=1,125=101/1,3;
 2/12=2,15=1,17=6,18=5,29=2,40=1/2;
 3/5=1,6=6,11=9,16=1,25=1,30=1,71=1,116=-2/1,2,3;
 4/5=1/1;
 5/5=2,38=6/2;
 6/7=2,8=2,9=2,10=2,14=2,15=1,28=1/1,2;
 7/7=1,16=-2,29=1,30=1/1,2,3,16;
 1/10=7,18=10,28=-2,30=1/3;
 99/10=4,12=1/99;
 Leave Link    1 at Tue Nov 13 14:32:50 2018, MaxMem=   536870912 cpu:         0.1
 (Enter /home/eliot/software/g09E01/l101.exe)
 -------------------
 Generated by Zonkey
 -------------------
 Symbolic Z-matrix:
 Charge =  0 Multiplicity = 1
 O                     1.91848  -0.34769  -0.09125 
 H                     1.62747   2.07792  -1.72315 
 H                     1.47635   2.06462   3.12232 
 
 NAtoms=      3 NQM=        3 NQMF=       0 NMMI=      0 NMMIF=      0
                NMic=       0 NMicF=      0.
                    Isotopes and Nuclear Properties:
 (Nuclear quadrupole moments (NQMom) in fm**2, nuclear magnetic moments (NMagM)
  in nuclear magnetons)

  Atom         1           2           3
 IAtWgt=          16           1           1
 AtmWgt=  15.9949146   1.0078250   1.0078250
 NucSpn=           0           1           1
 AtZEff=   0.0000000   0.0000000   0.0000000
 NQMom=    0.0000000   0.0000000   0.0000000
 NMagM=    0.0000000   2.7928460   2.7928460
 AtZNuc=   8.0000000   1.0000000   1.0000000
 Background charge distribution read from input stream:
 Point Charges:
 XYZ=   -0.9184    0.9112   -0.1214 Q=   -0.8340 A=    0.0000 R=    0.0000 C=    0.0000
 XYZ=   -0.3941    1.1079   -0.8977 Q=    0.4170 A=    0.0000 R=    0.0000 C=    0.0000
 XYZ=   -1.0163   -0.0409   -0.1329 Q=    0.4170 A=    0.0000 R=    0.0000 C=    0.0000
 Pt Chg Charge=              0.0000 electrons
 Pt Chg Dipole moment (Debye):
    X=              0.8539    Y=             -1.5130    Z=             -1.5779  Tot=              2.3470
 Pt Chg Quadrupole moment (Debye-Ang):
   XX=             -0.9986   YY=             -0.8642   ZZ=              1.5904
   XY=              2.5610   XZ=              0.5325   YZ=             -1.5380
 Pt Chg Traceless Quadrupole moment (Debye-Ang):
   XX=             -0.9078   YY=             -0.7734   ZZ=              1.6812
   XY=              2.5610   XZ=              0.5325   YZ=             -1.5380
 Pt Chg Octapole moment (Debye-Ang**2):
  XXX=              0.8774  YYY=             -0.3071  ZZZ=             -1.4465  XYY=              2.0823
  XXY=             -2.8185  XXZ=             -0.1440  XZZ=             -0.6178  YZZ=              1.7330
  YYZ=             -1.8036  XYZ=              0.3670
 Pt Chg Hexadecapole moment (Debye-Ang**3):
 XXXX=             -0.6640 YYYY=              0.2560 ZZZZ=              1.3004 XXXY=              2.7774
 XXXZ=              0.0128 YYYX=              1.7101 YYYZ=             -2.0771 ZZZX=              0.5692
 ZZZY=             -1.5985 XXYY=             -2.4199 XXZZ=              0.2374 YYZZ=              1.9322
 XXYZ=              0.0756 YYXZ=              0.4993 ZZXY=             -0.6538
 Leave Link  101 at Tue Nov 13 14:32:50 2018, MaxMem=   536870912 cpu:         0.2
 (Enter /home/eliot/software/g09E01/l103.exe)

 GradGradGradGradGradGradGradGradGradGradGradGradGradGradGradGradGradGrad
 Berny optimization.
 Initialization pass.
 Trust Radius=3.00D-01 FncErr=1.00D-07 GrdErr=1.00D-07
 Number of steps in this run=      2 maximum allowed number of steps=      2.
 GradGradGradGradGradGradGradGradGradGradGradGradGradGradGradGradGradGrad

 Leave Link  103 at Tue Nov 13 14:32:50 2018, MaxMem=   536870912 cpu:         0.1
 (Enter /home/eliot/software/g09E01/l202.exe)
 ---------------------------------------------------------------------------------------------------
                            Z-MATRIX (ANGSTROMS AND DEGREES)
   CD    Cent   Atom    N1       Length/X        N2       Alpha/Y        N3        Beta/Z          J
 ---------------------------------------------------------------------------------------------------
      1      1  O        0   1.918481         -0.347694         -0.091249
      2      2  H        0   1.627472          2.077923         -1.723151
      3      3  H        0   1.476351          2.064617          3.122321
 ---------------------------------------------------------------------------------------------------
                         Z-Matrix orientation:                         
 ---------------------------------------------------------------------
 Center     Atomic      Atomic             Coordinates (Angstroms)
 Number     Number       Type             X           Y           Z
 ---------------------------------------------------------------------
      1          8           0        1.918481   -0.347694   -0.091249
      2          1           0        1.627472    2.077923   -1.723151
      3          1           0        1.476351    2.064617    3.122321
 ---------------------------------------------------------------------
                    Distance matrix (angstroms):
                    1          2          3
     1  O    0.000000
     2  H    2.937926   0.000000
     3  H    4.042493   4.847846   0.000000
 Symmetry turned off by external request.
 Stoichiometry    H2O
 Framework group  CS[SG(H2O)]
 Deg. of freedom     3
 Full point group                 CS      NOp   2
 Rotational constants (GHZ):     61.8039369     32.6049102     21.3445230
 Leave Link  202 at Tue Nov 13 14:32:50 2018, MaxMem=   536870912 cpu:         0.0
 (Enter /home/eliot/software/g09E01/l301.exe)
 Standard basis: 6-31G (6D, 7F)
 Ernie: Thresh=  0.10000D-02 Tol=  0.10000D-05 Strict=F.
    13 basis functions,    30 primitive gaussians,    13 cartesian basis functions
     5 alpha electrons        5 beta electrons
       nuclear repulsion energy         2.5973408964 Hartrees.
 IExCor=    0 DFT=F Ex=HF Corr=None ExCW=0 ScaHFX=  1.000000
 ScaDFX=  1.000000  1.000000  1.000000  1.000000 ScalE2=  1.000000  1.000000
 IRadAn=      0 IRanWt=     -1 IRanGd=            0 ICorTp=0 IEmpDi=  4
 NAtoms=    3 NActive=    3 NUniq=    3 SFac= 1.00D+00 NAtFMM=   60 NAOKFM=F Big=F
 Integral buffers will be    131072 words long.
 Raffenetti 1 integral format.
 Two-electron integral symmetry is turned off.
 Background charge distribution read from rwf.
 PtFMM for NChg=         6 BoxLen=    40.00 Levels= 0 LMax=20 SMax=     9.2 ICnFMM=     1:
 Self energy of the charges =        -0.3237481586 a.u.
 MM   energy of the charges =         0.0000000000 a.u.
 Nuclei-charges interaction =         0.0860852149 a.u.
 Nuclear repulsion after external point charges =        2.3596779528 Hartrees.
 Leave Link  301 at Tue Nov 13 14:32:50 2018, MaxMem=   536870912 cpu:         0.1
 (Enter /home/eliot/software/g09E01/l302.exe)
 NPDir=0 NMtPBC=     1 NCelOv=     1 NCel=       1 NClECP=     1 NCelD=      1
         NCelK=      1 NCelE2=     1 NClLst=     1 CellRange=     0.0.
 One-electron integrals computed using PRISM.
 NBasis=    13 RedAO= T EigKep=  2.31D-01  NBF=    13
 NBsUse=    13 1.00D-06 EigRej= -1.00D+00 NBFU=    13
 Leave Link  302 at Tue Nov 13 14:32:50 2018, MaxMem=   536870912 cpu:         0.3
 (Enter /home/eliot/software/g09E01/l303.exe)
 DipDrv:  MaxL=1.
 Leave Link  303 at Tue Nov 13 14:32:50 2018, MaxMem=   536870912 cpu:         0.1
 (Enter /home/eliot/software/g09E01/l401.exe)
 Initial guess from the checkpoint file:  "gradients-qmjob.chk"
 B after Tr=     1.549325    2.066982   -1.720421
         Rot=    0.902939    0.005857    0.296789    0.310777 Ang=  50.91 deg.
 Guess basis will be translated and rotated to current coordinates.
 JPrj=2 DoOrth=T DoCkMO=T.
 Leave Link  401 at Tue Nov 13 14:32:50 2018, MaxMem=   536870912 cpu:         0.2
 (Enter /home/eliot/software/g09E01/l502.exe)
 Closed shell SCF:
 Using DIIS extrapolation, IDIIS=  1040.
 Two-electron integral symmetry not used.
 Keep R1 ints in memory in canonical form, NReq=828464.
 IVT=       20131 IEndB=       20131 NGot=   536870912 MDV=   536846596
 LenX=   536846596 LenY=   536845714
 Requested convergence on RMS density matrix=1.00D-08 within 128 cycles.
 Requested convergence on MAX density matrix=1.00D-06.
 Requested convergence on             energy=1.00D-06.
 No special actions if energy rises.
 FoFCou: FMM=F IPFlag=           0 FMFlag=           0 FMFlg1=           0
         NFxFlg=           0 DoJE=F BraDBF=F KetDBF=F FulRan=T
         wScrn=  0.000000 ICntrl=     600 IOpCl=  0 I1Cent=           0 NGrid=           0
         NMat0=    1 NMatS0=     91 NMatT0=    0 NMatD0=    1 NMtDS0=    0 NMtDT0=    0
 Symmetry not used in FoFCou.

 Cycle   1  Pass 1  IDiag  1:
 E= -75.2527276017611    
 DIIS: error= 1.01D-01 at cycle   1 NSaved=   1.
 NSaved= 1 IEnMin= 1 EnMin= -75.2527276017611     IErMin= 1 ErrMin= 1.01D-01
 ErrMax= 1.01D-01  0.00D+00 EMaxC= 1.00D-01 BMatC= 1.99D-01 BMatP= 1.99D-01
 IDIUse=3 WtCom= 0.00D+00 WtEn= 1.00D+00
 Coeff-Com:  0.100D+01
 Coeff-En:   0.100D+01
 Coeff:      0.100D+01
 Gap=     0.457 Goal=   None    Shift=    0.000
 GapD=    0.457 DampG=2.000 DampE=0.250 DampFc=0.5000 IDamp=-1.
 Damping current iteration by 5.00D-01
 RMSDP=7.44D-02 MaxDP=4.01D-01              OVMax= 5.94D-01

 Cycle   2  Pass 1  IDiag  1:
 E= -75.2594840219807     Delta-E=       -0.006756420220 Rises=F Damp=T
 DIIS: error= 8.60D-02 at cycle   2 NSaved=   2.
 NSaved= 2 IEnMin= 2 EnMin= -75.2594840219807     IErMin= 2 ErrMin= 8.60D-02
 ErrMax= 8.60D-02  0.00D+00 EMaxC= 1.00D-01 BMatC= 1.65D-01 BMatP= 1.99D-01
 IDIUse=3 WtCom= 1.40D-01 WtEn= 8.60D-01
 Coeff-Com:  0.444D+00 0.556D+00
 Coeff-En:   0.487D+00 0.513D+00
 Coeff:      0.481D+00 0.519D+00
 Gap=     0.292 Goal=   None    Shift=    0.000
 RMSDP=4.02D-02 MaxDP=1.55D-01 DE=-6.76D-03 OVMax= 6.90D-01

 Cycle   3  Pass 1  IDiag  1:
 E= -75.4492791046409     Delta-E=       -0.189795082660 Rises=F Damp=F
 DIIS: error= 8.26D-02 at cycle   3 NSaved=   3.
 NSaved= 3 IEnMin= 3 EnMin= -75.4492791046409     IErMin= 3 ErrMin= 8.26D-02
 ErrMax= 8.26D-02  0.00D+00 EMaxC= 1.00D-01 BMatC= 1.04D-01 BMatP= 1.65D-01
 IDIUse=3 WtCom= 1.74D-01 WtEn= 8.26D-01
 Coeff-Com: -0.529D+00 0.567D+00 0.962D+00
 Coeff-En:   0.000D+00 0.279D+00 0.721D+00
 Coeff:     -0.922D-01 0.329D+00 0.763D+00
 Gap=     0.018 Goal=   None    Shift=    0.000
 RMSDP=5.72D-02 MaxDP=3.43D-01 DE=-1.90D-01 OVMax= 6.48D-01

 Cycle   4  Pass 1  IDiag  1:
 E= -75.0444172601330     Delta-E=        0.404861844508 Rises=F Damp=F
 DIIS: error= 1.59D-01 at cycle   4 NSaved=   4.
 NSaved= 4 IEnMin= 3 EnMin= -75.4492791046409     IErMin= 3 ErrMin= 8.26D-02
 ErrMax= 1.59D-01  0.00D+00 EMaxC= 1.00D-01 BMatC= 3.74D-01 BMatP= 1.04D-01
 IDIUse=2 WtCom= 0.00D+00 WtEn= 1.00D+00
 Coeff-En:   0.000D+00 0.000D+00 0.693D+00 0.307D+00
 Coeff:      0.000D+00 0.000D+00 0.693D+00 0.307D+00
 Gap=     0.076 Goal=   None    Shift=    0.000
 RMSDP=3.15D-02 MaxDP=1.75D-01 DE= 4.05D-01 OVMax= 3.50D-01

 Cycle   5  Pass 1  IDiag  1:
 E= -75.5788369425574     Delta-E=       -0.534419682424 Rises=F Damp=F
 DIIS: error= 4.11D-02 at cycle   5 NSaved=   5.
 NSaved= 5 IEnMin= 5 EnMin= -75.5788369425574     IErMin= 5 ErrMin= 4.11D-02
 ErrMax= 4.11D-02  0.00D+00 EMaxC= 1.00D-01 BMatC= 2.60D-02 BMatP= 1.04D-01
 IDIUse=3 WtCom= 5.89D-01 WtEn= 4.11D-01
 Coeff-Com: -0.568D-01 0.485D-01 0.233D+00-0.176D+00 0.952D+00
 Coeff-En:   0.000D+00 0.000D+00 0.226D+00 0.000D+00 0.774D+00
 Coeff:     -0.335D-01 0.286D-01 0.230D+00-0.104D+00 0.879D+00
 Gap=     0.124 Goal=   None    Shift=    0.000
 RMSDP=1.17D-02 MaxDP=5.41D-02 DE=-5.34D-01 OVMax= 1.53D-01

 Cycle   6  Pass 1  IDiag  1:
 E= -75.6225360723037     Delta-E=       -0.043699129746 Rises=F Damp=F
 DIIS: error= 1.30D-02 at cycle   6 NSaved=   6.
 NSaved= 6 IEnMin= 6 EnMin= -75.6225360723037     IErMin= 6 ErrMin= 1.30D-02
 ErrMax= 1.30D-02  0.00D+00 EMaxC= 1.00D-01 BMatC= 2.25D-03 BMatP= 2.60D-02
 IDIUse=3 WtCom= 8.70D-01 WtEn= 1.30D-01
 Coeff-Com: -0.525D-01 0.351D-01 0.270D+00-0.200D+00 0.118D+01-0.230D+00
 Coeff-En:   0.000D+00 0.000D+00 0.000D+00 0.000D+00 0.000D+00 0.100D+01
 Coeff:     -0.457D-01 0.305D-01 0.235D+00-0.174D+00 0.102D+01-0.700D-01
 Gap=     0.120 Goal=   None    Shift=    0.000
 RMSDP=6.60D-03 MaxDP=4.03D-02 DE=-4.37D-02 OVMax= 6.92D-02

 Cycle   7  Pass 1  IDiag  1:
 E= -75.6026971483678     Delta-E=        0.019838923936 Rises=F Damp=F
 DIIS: error= 3.42D-02 at cycle   7 NSaved=   7.
 NSaved= 7 IEnMin= 6 EnMin= -75.6225360723037     IErMin= 6 ErrMin= 1.30D-02
 ErrMax= 3.42D-02  0.00D+00 EMaxC= 1.00D-01 BMatC= 1.86D-02 BMatP= 2.25D-03
 IDIUse=2 WtCom= 0.00D+00 WtEn= 1.00D+00
 Rare condition: small coef for last iteration:  0.000D+00
 Coeff-En:   0.000D+00 0.000D+00 0.106D+00 0.000D+00 0.000D+00 0.000D+00
 Coeff-En:   0.894D+00
 Coeff:      0.000D+00 0.000D+00 0.106D+00 0.000D+00 0.000D+00 0.000D+00
 Coeff:      0.894D+00
 Gap=     0.105 Goal=   None    Shift=    0.000
 RMSDP=2.26D-02 MaxDP=1.18D-01 DE= 1.98D-02 OVMax= 2.60D-01

 Cycle   8  Pass 1  IDiag  1:
 E= -75.5851939044333     Delta-E=        0.017503243934 Rises=F Damp=F
 DIIS: error= 4.97D-02 at cycle   8 NSaved=   8.
 NSaved= 8 IEnMin= 6 EnMin= -75.6225360723037     IErMin= 6 ErrMin= 1.30D-02
 ErrMax= 4.97D-02  0.00D+00 EMaxC= 1.00D-01 BMatC= 4.94D-02 BMatP= 2.25D-03
 IDIUse=2 WtCom= 0.00D+00 WtEn= 1.00D+00
 Coeff-En:   0.000D+00 0.000D+00 0.000D+00 0.000D+00 0.000D+00 0.000D+00
 Coeff-En:   0.588D+00 0.412D+00
 Coeff:      0.000D+00 0.000D+00 0.000D+00 0.000D+00 0.000D+00 0.000D+00
 Coeff:      0.588D+00 0.412D+00
 Gap=     0.089 Goal=   None    Shift=    0.000
 RMSDP=1.97D-02 MaxDP=1.06D-01 DE= 1.75D-02 OVMax= 2.64D-01

 Cycle   9  Pass 1  IDiag  1:
 E= -75.6681986968320     Delta-E=       -0.083004792399 Rises=F Damp=F
 DIIS: error= 1.76D-02 at cycle   9 NSaved=   9.
 NSaved= 9 IEnMin= 9 EnMin= -75.6681986968320     IErMin= 6 ErrMin= 1.30D-02
 ErrMax= 1.76D-02  0.00D+00 EMaxC= 1.00D-01 BMatC= 5.22D-03 BMatP= 2.25D-03
 IDIUse=2 WtCom= 0.00D+00 WtEn= 1.00D+00
 Coeff-En:   0.000D+00 0.000D+00 0.000D+00 0.000D+00 0.000D+00 0.000D+00
 Coeff-En:   0.000D+00 0.000D+00 0.100D+01
 Coeff:      0.000D+00 0.000D+00 0.000D+00 0.000D+00 0.000D+00 0.000D+00
 Coeff:      0.000D+00 0.000D+00 0.100D+01
 Gap=     0.102 Goal=   None    Shift=    0.000
 RMSDP=1.59D-02 MaxDP=5.48D-02 DE=-8.30D-02 OVMax= 1.64D-01

 Cycle  10  Pass 1  IDiag  1:
 E= -75.7010746934653     Delta-E=       -0.032875996633 Rises=F Damp=F
 DIIS: error= 1.71D-02 at cycle  10 NSaved=  10.
 NSaved=10 IEnMin=10 EnMin= -75.7010746934653     IErMin= 6 ErrMin= 1.30D-02
 ErrMax= 1.71D-02  0.00D+00 EMaxC= 1.00D-01 BMatC= 3.94D-03 BMatP= 2.25D-03
 IDIUse=2 WtCom= 0.00D+00 WtEn= 1.00D+00
 Coeff-En:   0.000D+00 0.000D+00 0.000D+00 0.000D+00 0.000D+00 0.000D+00
 Coeff-En:   0.000D+00 0.000D+00 0.000D+00 0.100D+01
 Coeff:      0.000D+00 0.000D+00 0.000D+00 0.000D+00 0.000D+00 0.000D+00
 Coeff:      0.000D+00 0.000D+00 0.000D+00 0.100D+01
 Gap=     0.085 Goal=   None    Shift=    0.000
 RMSDP=2.40D-02 MaxDP=1.60D-01 DE=-3.29D-02 OVMax= 3.29D-01

 Cycle  11  Pass 1  IDiag  1:
 E= -75.6840090023501     Delta-E=        0.017065691115 Rises=F Damp=F
 DIIS: error= 4.25D-02 at cycle  11 NSaved=  11.
 NSaved=11 IEnMin=10 EnMin= -75.7010746934653     IErMin= 6 ErrMin= 1.30D-02
 ErrMax= 4.25D-02  0.00D+00 EMaxC= 1.00D-01 BMatC= 1.27D-02 BMatP= 2.25D-03
 IDIUse=2 WtCom= 0.00D+00 WtEn= 1.00D+00
 Coeff-En:   0.000D+00 0.000D+00 0.000D+00 0.000D+00 0.000D+00 0.000D+00
 Coeff-En:   0.000D+00 0.000D+00 0.000D+00 0.668D+00 0.332D+00
 Coeff:      0.000D+00 0.000D+00 0.000D+00 0.000D+00 0.000D+00 0.000D+00
 Coeff:      0.000D+00 0.000D+00 0.000D+00 0.668D+00 0.332D+00
 Gap=     0.089 Goal=   None    Shift=    0.000
 RMSDP=2.08D-02 MaxDP=1.50D-01 DE= 1.71D-02 OVMax= 2.89D-01

 Cycle  12  Pass 1  IDiag  1:
 E= -75.7235744998384     Delta-E=       -0.039565497488 Rises=F Damp=F
 DIIS: error= 1.72D-02 at cycle  12 NSaved=  12.
 NSaved=12 IEnMin=12 EnMin= -75.7235744998384     IErMin= 6 ErrMin= 1.30D-02
 ErrMax= 1.72D-02  0.00D+00 EMaxC= 1.00D-01 BMatC= 1.96D-03 BMatP= 2.25D-03
 IDIUse=3 WtCom= 8.70D-01 WtEn= 1.30D-01
 Coeff-Com: -0.207D-01 0.245D-01-0.110D+00-0.808D-01-0.530D-01 0.514D+00
 Coeff-Com:  0.915D+00 0.402D+00-0.176D+01-0.303D+00 0.481D+00 0.996D+00
 Coeff-En:   0.000D+00 0.000D+00 0.000D+00 0.000D+00 0.000D+00 0.000D+00
 Coeff-En:   0.000D+00 0.000D+00 0.000D+00 0.000D+00 0.149D+00 0.851D+00
 Coeff:     -0.180D-01 0.213D-01-0.959D-01-0.702D-01-0.461D-01 0.447D+00
 Coeff:      0.795D+00 0.350D+00-0.153D+01-0.263D+00 0.438D+00 0.977D+00
 Gap=     0.081 Goal=   None    Shift=    0.000
 RMSDP=8.22D-03 MaxDP=5.65D-02 DE=-3.96D-02 OVMax= 1.11D-01

 Cycle  13  Pass 1  IDiag  1:
 E= -75.7241103179118     Delta-E=       -0.000535818073 Rises=F Damp=F
 DIIS: error= 9.73D-03 at cycle  13 NSaved=  13.
 NSaved=13 IEnMin=13 EnMin= -75.7241103179118     IErMin=13 ErrMin= 9.73D-03
 ErrMax= 9.73D-03  0.00D+00 EMaxC= 1.00D-01 BMatC= 1.09D-03 BMatP= 1.96D-03
 IDIUse=3 WtCom= 9.03D-01 WtEn= 9.73D-02
 Coeff-Com: -0.214D-01 0.229D-01 0.790D-01 0.363D-01-0.289D+00-0.636D+00
 Coeff-Com:  0.782D+00 0.218D-01-0.109D+01-0.224D-01-0.168D+00 0.237D+00
 Coeff-Com:  0.205D+01
 Coeff-En:   0.000D+00 0.000D+00 0.000D+00 0.000D+00 0.000D+00 0.000D+00
 Coeff-En:   0.000D+00 0.000D+00 0.000D+00 0.000D+00 0.000D+00 0.457D+00
 Coeff-En:   0.543D+00
 Coeff:     -0.193D-01 0.206D-01 0.713D-01 0.328D-01-0.261D+00-0.574D+00
 Coeff:      0.706D+00 0.197D-01-0.988D+00-0.202D-01-0.152D+00 0.258D+00
 Coeff:      0.191D+01
 Gap=     0.113 Goal=   None    Shift=    0.000
 RMSDP=1.69D-02 MaxDP=6.65D-02 DE=-5.36D-04 OVMax= 1.82D-01

 Cycle  14  Pass 1  IDiag  1:
 E= -75.7319212088092     Delta-E=       -0.007810890897 Rises=F Damp=F
 DIIS: error= 4.09D-03 at cycle  14 NSaved=  14.
 NSaved=14 IEnMin=14 EnMin= -75.7319212088092     IErMin=14 ErrMin= 4.09D-03
 ErrMax= 4.09D-03  0.00D+00 EMaxC= 1.00D-01 BMatC= 3.91D-04 BMatP= 1.09D-03
 IDIUse=3 WtCom= 9.59D-01 WtEn= 4.09D-02
 Coeff-Com:  0.151D-02 0.405D-03 0.199D-01 0.661D-02-0.168D+00-0.188D+00
 Coeff-Com:  0.378D+00-0.208D-01-0.369D+00-0.826D-02-0.745D-01 0.151D+00
 Coeff-Com:  0.809D+00 0.462D+00
 Coeff-En:   0.000D+00 0.000D+00 0.000D+00 0.000D+00 0.000D+00 0.000D+00
 Coeff-En:   0.000D+00 0.000D+00 0.000D+00 0.000D+00 0.000D+00 0.000D+00
 Coeff-En:   0.000D+00 0.100D+01
 Coeff:      0.145D-02 0.389D-03 0.191D-01 0.634D-02-0.161D+00-0.180D+00
 Coeff:      0.362D+00-0.200D-01-0.354D+00-0.792D-02-0.714D-01 0.144D+00
 Coeff:      0.776D+00 0.484D+00
 Gap=     0.115 Goal=   None    Shift=    0.000
 RMSDP=3.14D-03 MaxDP=1.31D-02 DE=-7.81D-03 OVMax= 3.06D-02

 Cycle  15  Pass 1  IDiag  1:
 E= -75.7335452108322     Delta-E=       -0.001624002023 Rises=F Damp=F
 DIIS: error= 1.42D-03 at cycle  15 NSaved=  15.
 NSaved=15 IEnMin=15 EnMin= -75.7335452108322     IErMin=15 ErrMin= 1.42D-03
 ErrMax= 1.42D-03  0.00D+00 EMaxC= 1.00D-01 BMatC= 5.10D-05 BMatP= 3.91D-04
 IDIUse=3 WtCom= 9.86D-01 WtEn= 1.42D-02
 Coeff-Com:  0.298D-02-0.388D-02-0.131D-01-0.503D-02-0.213D-01 0.172D+00
 Coeff-Com: -0.181D-01-0.727D-02 0.517D-01 0.325D-01 0.469D-01-0.959D-01
 Coeff-Com: -0.354D+00-0.832D+00 0.204D+01
 Coeff-En:   0.000D+00 0.000D+00 0.000D+00 0.000D+00 0.000D+00 0.000D+00
 Coeff-En:   0.000D+00 0.000D+00 0.000D+00 0.000D+00 0.000D+00 0.000D+00
 Coeff-En:   0.000D+00 0.000D+00 0.100D+01
 Coeff:      0.294D-02-0.383D-02-0.129D-01-0.496D-02-0.209D-01 0.169D+00
 Coeff:     -0.179D-01-0.717D-02 0.509D-01 0.321D-01 0.462D-01-0.945D-01
 Coeff:     -0.349D+00-0.820D+00 0.203D+01
 Gap=     0.104 Goal=   None    Shift=    0.000
 RMSDP=3.29D-03 MaxDP=1.42D-02 DE=-1.62D-03 OVMax= 3.38D-02

 Cycle  16  Pass 1  IDiag  1:
 E= -75.7335975622639     Delta-E=       -0.000052351432 Rises=F Damp=F
 DIIS: error= 1.42D-03 at cycle  16 NSaved=  16.
 NSaved=16 IEnMin=16 EnMin= -75.7335975622639     IErMin=15 ErrMin= 1.42D-03
 ErrMax= 1.42D-03  0.00D+00 EMaxC= 1.00D-01 BMatC= 2.72D-05 BMatP= 5.10D-05
 IDIUse=3 WtCom= 9.86D-01 WtEn= 1.42D-02
 Coeff-Com:  0.249D-02-0.219D-02-0.185D-01-0.468D-02 0.481D-01 0.108D+00
 Coeff-Com: -0.132D+00 0.245D-01 0.151D+00-0.722D-01 0.290D-01 0.139D-01
 Coeff-Com: -0.416D+00 0.365D+00-0.562D+00 0.147D+01
 Coeff-En:   0.000D+00 0.000D+00 0.000D+00 0.000D+00 0.000D+00 0.000D+00
 Coeff-En:   0.000D+00 0.000D+00 0.000D+00 0.000D+00 0.000D+00 0.000D+00
 Coeff-En:   0.000D+00 0.000D+00 0.000D+00 0.100D+01
 Coeff:      0.245D-02-0.216D-02-0.182D-01-0.461D-02 0.474D-01 0.106D+00
 Coeff:     -0.130D+00 0.241D-01 0.149D+00-0.711D-01 0.286D-01 0.137D-01
 Coeff:     -0.410D+00 0.360D+00-0.554D+00 0.146D+01
 Gap=     0.106 Goal=   None    Shift=    0.000
 RMSDP=8.94D-04 MaxDP=3.41D-03 DE=-5.24D-05 OVMax= 1.05D-02

 Cycle  17  Pass 1  IDiag  1:
 E= -75.7337326894836     Delta-E=       -0.000135127220 Rises=F Damp=F
 DIIS: error= 9.03D-04 at cycle  17 NSaved=  17.
 NSaved=17 IEnMin=17 EnMin= -75.7337326894836     IErMin=17 ErrMin= 9.03D-04
 ErrMax= 9.03D-04  0.00D+00 EMaxC= 1.00D-01 BMatC= 1.16D-05 BMatP= 2.72D-05
 IDIUse=3 WtCom= 9.91D-01 WtEn= 9.03D-03
 Coeff-Com:  0.183D-03-0.695D-03-0.561D-02-0.281D-02 0.401D-01 0.166D+00
 Coeff-Com: -0.164D+00-0.272D-01 0.151D+00 0.331D-01 0.342D-01-0.505D-01
 Coeff-Com: -0.189D+00-0.298D+00 0.778D+00-0.271D+01 0.324D+01
 Coeff-En:   0.000D+00 0.000D+00 0.000D+00 0.000D+00 0.000D+00 0.000D+00
 Coeff-En:   0.000D+00 0.000D+00 0.000D+00 0.000D+00 0.000D+00 0.000D+00
 Coeff-En:   0.000D+00 0.000D+00 0.000D+00 0.000D+00 0.100D+01
 Coeff:      0.181D-03-0.689D-03-0.556D-02-0.278D-02 0.398D-01 0.165D+00
 Coeff:     -0.163D+00-0.270D-01 0.150D+00 0.328D-01 0.339D-01-0.500D-01
 Coeff:     -0.187D+00-0.295D+00 0.771D+00-0.268D+01 0.322D+01
 Gap=     0.105 Goal=   None    Shift=    0.000
 RMSDP=6.50D-04 MaxDP=3.15D-03 DE=-1.35D-04 OVMax= 6.59D-03

 Cycle  18  Pass 1  IDiag  1:
 E= -75.7336932621253     Delta-E=        0.000039427358 Rises=F Damp=F
 DIIS: error= 1.17D-03 at cycle  18 NSaved=  18.
 NSaved=18 IEnMin=17 EnMin= -75.7337326894836     IErMin=17 ErrMin= 9.03D-04
 ErrMax= 1.17D-03  0.00D+00 EMaxC= 1.00D-01 BMatC= 2.86D-05 BMatP= 1.16D-05
 IDIUse=3 WtCom= 9.91D-01 WtEn= 9.03D-03
 Rare condition: small coef for last iteration:  0.000D+00
 Coeff-Com:  0.265D-03-0.645D-03-0.812D-02-0.322D-02 0.305D-01 0.212D+00
 Coeff-Com: -0.157D+00-0.260D-01 0.126D+00 0.101D-01 0.405D-01-0.244D-01
 Coeff-Com: -0.170D+00-0.392D+00 0.897D+00-0.305D+01 0.417D+01-0.661D+00
 Coeff-En:   0.000D+00 0.000D+00 0.000D+00 0.000D+00 0.000D+00 0.000D+00
 Coeff-En:   0.000D+00 0.000D+00 0.000D+00 0.000D+00 0.000D+00 0.000D+00
 Coeff-En:   0.000D+00 0.000D+00 0.000D+00 0.000D+00 0.000D+00 0.100D+01
 Coeff:      0.265D-03-0.645D-03-0.812D-02-0.322D-02 0.305D-01 0.212D+00
 Coeff:     -0.157D+00-0.260D-01 0.126D+00 0.101D-01 0.405D-01-0.244D-01
 Coeff:     -0.170D+00-0.392D+00 0.897D+00-0.305D+01 0.417D+01-0.661D+00
 Gap=     0.104 Goal=   None    Shift=    0.000
 RMSDP=5.24D-04 MaxDP=1.75D-03 DE= 3.94D-05 OVMax= 4.83D-03

 Cycle  19  Pass 1  IDiag  1:
 E= -75.7335979833400     Delta-E=        0.000095278785 Rises=F Damp=F
 DIIS: error= 1.48D-03 at cycle  19 NSaved=  19.
 NSaved=19 IEnMin=17 EnMin= -75.7337326894836     IErMin=17 ErrMin= 9.03D-04
 ErrMax= 1.48D-03  0.00D+00 EMaxC= 1.00D-01 BMatC= 4.29D-05 BMatP= 1.16D-05
 IDIUse=3 WtCom= 9.91D-01 WtEn= 9.03D-03
 Rare condition: small coef for last iteration:  0.000D+00
 Coeff-Com:  0.842D-03-0.600D-03-0.114D-01-0.282D-02 0.209D-01 0.226D+00
 Coeff-Com: -0.148D+00-0.184D-01 0.100D+00-0.442D-01 0.331D-01 0.324D-01
 Coeff-Com: -0.111D+00-0.553D-01-0.115D+00-0.103D+01 0.305D+01 0.413D+01
 Coeff-Com: -0.505D+01
 Coeff-En:   0.000D+00 0.000D+00 0.000D+00 0.000D+00 0.000D+00 0.000D+00
 Coeff-En:   0.000D+00 0.000D+00 0.000D+00 0.000D+00 0.000D+00 0.000D+00
 Coeff-En:   0.000D+00 0.000D+00 0.000D+00 0.000D+00 0.000D+00 0.000D+00
 Coeff-En:   0.100D+01
 Coeff:      0.842D-03-0.600D-03-0.114D-01-0.282D-02 0.209D-01 0.226D+00
 Coeff:     -0.148D+00-0.184D-01 0.100D+00-0.442D-01 0.331D-01 0.324D-01
 Coeff:     -0.111D+00-0.553D-01-0.115D+00-0.103D+01 0.305D+01 0.413D+01
 Coeff:     -0.505D+01
 Gap=     0.104 Goal=   None    Shift=    0.000
 RMSDP=1.24D-03 MaxDP=5.05D-03 DE= 9.53D-05 OVMax= 1.30D-02

 Cycle  20  Pass 1  IDiag  1:
 E= -75.7336602916406     Delta-E=       -0.000062308301 Rises=F Damp=F
 DIIS: error= 1.45D-03 at cycle  20 NSaved=  20.
 NSaved=20 IEnMin=17 EnMin= -75.7337326894836     IErMin=17 ErrMin= 9.03D-04
 ErrMax= 1.45D-03  0.00D+00 EMaxC= 1.00D-01 BMatC= 4.05D-05 BMatP= 1.16D-05
 IDIUse=3 WtCom= 9.91D-01 WtEn= 9.03D-03
 Coeff-Com:  0.948D-03-0.726D-03-0.132D-01-0.229D-02 0.222D-01 0.244D+00
 Coeff-Com: -0.164D+00-0.176D-01 0.116D+00-0.469D-01 0.372D-01 0.380D-01
 Coeff-Com: -0.153D+00-0.114D+00 0.149D+00-0.229D+01 0.442D+01 0.152D+00
 Coeff-Com: -0.330D+01 0.193D+01
 Coeff-En:   0.000D+00 0.000D+00 0.000D+00 0.000D+00 0.000D+00 0.000D+00
 Coeff-En:   0.000D+00 0.000D+00 0.000D+00 0.000D+00 0.000D+00 0.000D+00
 Coeff-En:   0.000D+00 0.000D+00 0.000D+00 0.000D+00 0.000D+00 0.000D+00
 Coeff-En:   0.000D+00 0.100D+01
 Coeff:      0.940D-03-0.719D-03-0.130D-01-0.227D-02 0.220D-01 0.242D+00
 Coeff:     -0.163D+00-0.175D-01 0.115D+00-0.464D-01 0.368D-01 0.377D-01
 Coeff:     -0.152D+00-0.113D+00 0.148D+00-0.227D+01 0.438D+01 0.151D+00
 Coeff:     -0.327D+01 0.192D+01
 Gap=     0.104 Goal=   None    Shift=    0.000
 RMSDP=1.36D-03 MaxDP=5.29D-03 DE=-6.23D-05 OVMax= 1.42D-02

 Cycle  21  Pass 1  IDiag  1:
 E= -75.7336894228097     Delta-E=       -0.000029131169 Rises=F Damp=F
 DIIS: error= 1.54D-03 at cycle  21 NSaved=  20.
 NSaved=20 IEnMin=16 EnMin= -75.7337326894836     IErMin=16 ErrMin= 9.03D-04
 ErrMax= 1.54D-03  0.00D+00 EMaxC= 1.00D-01 BMatC= 4.34D-05 BMatP= 1.16D-05
 IDIUse=3 WtCom= 9.91D-01 WtEn= 9.03D-03
 Coeff-Com:  0.489D-03-0.334D-03-0.936D-02 0.205D-01 0.223D+00-0.167D+00
 Coeff-Com: -0.235D-01 0.112D+00-0.430D-01 0.277D-01 0.343D-01-0.947D-01
 Coeff-Com: -0.343D-02-0.972D-01-0.181D+01 0.377D+01 0.194D+01-0.336D+01
 Coeff-Com: -0.663D+00 0.114D+01
 Coeff-En:   0.000D+00 0.000D+00 0.000D+00 0.000D+00 0.000D+00 0.000D+00
 Coeff-En:   0.000D+00 0.000D+00 0.000D+00 0.000D+00 0.000D+00 0.000D+00
 Coeff-En:   0.000D+00 0.000D+00 0.000D+00 0.000D+00 0.000D+00 0.000D+00
 Coeff-En:   0.000D+00 0.100D+01
 Coeff:      0.484D-03-0.331D-03-0.928D-02 0.203D-01 0.221D+00-0.165D+00
 Coeff:     -0.233D-01 0.111D+00-0.426D-01 0.274D-01 0.340D-01-0.938D-01
 Coeff:     -0.339D-02-0.963D-01-0.179D+01 0.374D+01 0.192D+01-0.333D+01
 Coeff:     -0.657D+00 0.114D+01
 Gap=     0.105 Goal=   None    Shift=    0.000
 RMSDP=4.38D-04 MaxDP=1.53D-03 DE=-2.91D-05 OVMax= 4.48D-03

 Cycle  22  Pass 1  IDiag  1:
 E= -75.7337728736693     Delta-E=       -0.000083450860 Rises=F Damp=F
 DIIS: error= 1.28D-03 at cycle  22 NSaved=  20.
 NSaved=20 IEnMin=20 EnMin= -75.7337728736693     IErMin=15 ErrMin= 9.03D-04
 ErrMax= 1.28D-03  0.00D+00 EMaxC= 1.00D-01 BMatC= 3.14D-05 BMatP= 1.16D-05
 IDIUse=3 WtCom= 9.91D-01 WtEn= 9.03D-03
 Large coefficients: NSaved= 20 BigCof=   20.29 CofMax=   10.00 Det=-1.69D-10
 Inversion failed.  Reducing to 19 matrices.
 Large coefficients: NSaved= 19 BigCof=   20.05 CofMax=   10.00 Det=-1.74D-10
 Inversion failed.  Reducing to 18 matrices.
 Large coefficients: NSaved= 18 BigCof=   19.12 CofMax=   10.00 Det=-1.81D-10
 Inversion failed.  Reducing to 17 matrices.
 Large coefficients: NSaved= 17 BigCof=   12.00 CofMax=   10.00 Det=-1.97D-10
 Inversion failed.  Reducing to 16 matrices.
 Large coefficients: NSaved= 16 BigCof=   13.18 CofMax=   10.00 Det=-2.00D-10
 Inversion failed.  Reducing to 15 matrices.
 Large coefficients: NSaved= 15 BigCof=   13.34 CofMax=   10.00 Det=-2.02D-10
 Inversion failed.  Reducing to 14 matrices.
 Large coefficients: NSaved= 14 BigCof=   13.49 CofMax=   10.00 Det=-2.14D-10
 Inversion failed.  Reducing to 13 matrices.
 Large coefficients: NSaved= 13 BigCof=   11.39 CofMax=   10.00 Det=-2.22D-10
 Inversion failed.  Reducing to 12 matrices.
 Large coefficients: NSaved= 12 BigCof=   11.43 CofMax=   10.00 Det=-2.26D-10
 Inversion failed.  Reducing to 11 matrices.
 Coeff-Com: -0.224D-02 0.456D-01 0.177D+00-0.565D+00 0.139D+01-0.782D+00
 Coeff-Com:  0.482D+00-0.227D+01 0.297D+01-0.997D+01 0.954D+01
 Coeff-En:   0.000D+00 0.000D+00 0.000D+00 0.000D+00 0.000D+00 0.000D+00
 Coeff-En:   0.000D+00 0.000D+00 0.000D+00 0.000D+00 0.100D+01
 Coeff:     -0.222D-02 0.452D-01 0.175D+00-0.560D+00 0.137D+01-0.775D+00
 Coeff:      0.478D+00-0.225D+01 0.294D+01-0.988D+01 0.946D+01
 Gap=     0.109 Goal=   None    Shift=    0.000
 RMSDP=2.75D-03 MaxDP=1.07D-02 DE=-8.35D-05 OVMax= 2.94D-02

 Cycle  23  Pass 1  IDiag  1:
 E= -75.7340199241666     Delta-E=       -0.000247050497 Rises=F Damp=F
 DIIS: error= 2.57D-04 at cycle  23 NSaved=  12.
 NSaved=12 IEnMin=12 EnMin= -75.7340199241666     IErMin=12 ErrMin= 2.57D-04
 ErrMax= 2.57D-04  0.00D+00 EMaxC= 1.00D-01 BMatC= 5.63D-07 BMatP= 1.16D-05
 IDIUse=3 WtCom= 9.97D-01 WtEn= 2.57D-03
 Large coefficients: NSaved= 12 BigCof=   19.65 CofMax=   10.00 Det=-3.57D-10
 Inversion failed.  Reducing to 11 matrices.
 Coeff-Com:  0.410D-01-0.166D-01-0.968D+00 0.157D+01-0.175D+01 0.960D+00
 Coeff-Com: -0.238D+01 0.102D+01-0.470D+01 0.439D+01 0.284D+01
 Coeff-En:   0.000D+00 0.000D+00 0.000D+00 0.000D+00 0.000D+00 0.000D+00
 Coeff-En:   0.000D+00 0.000D+00 0.000D+00 0.000D+00 0.100D+01
 Coeff:      0.409D-01-0.166D-01-0.965D+00 0.156D+01-0.175D+01 0.958D+00
 Coeff:     -0.237D+01 0.102D+01-0.469D+01 0.438D+01 0.284D+01
 Gap=     0.109 Goal=   None    Shift=    0.000
 RMSDP=1.12D-02 MaxDP=5.62D-02 DE=-2.47D-04 OVMax= 1.49D-01

 Cycle  24  Pass 1  IDiag  1:
 E= -75.7343304572437     Delta-E=       -0.000310533077 Rises=F Damp=F
 DIIS: error= 1.31D-03 at cycle  24 NSaved=  12.
 NSaved=12 IEnMin=12 EnMin= -75.7343304572437     IErMin=11 ErrMin= 2.57D-04
 ErrMax= 1.31D-03  0.00D+00 EMaxC= 1.00D-01 BMatC= 1.90D-05 BMatP= 5.63D-07
 IDIUse=3 WtCom= 9.97D-01 WtEn= 2.57D-03
 Coeff-Com:  0.428D-01-0.469D-01-0.937D+00 0.145D+01-0.186D+01 0.215D+01
 Coeff-Com: -0.211D+01-0.117D+01-0.147D+01 0.170D+01 0.330D+01-0.384D-01
 Coeff-En:   0.000D+00 0.000D+00 0.000D+00 0.000D+00 0.000D+00 0.000D+00
 Coeff-En:   0.000D+00 0.000D+00 0.000D+00 0.000D+00 0.000D+00 0.100D+01
 Coeff:      0.426D-01-0.467D-01-0.934D+00 0.144D+01-0.186D+01 0.214D+01
 Coeff:     -0.211D+01-0.117D+01-0.146D+01 0.170D+01 0.329D+01-0.357D-01
 Gap=     0.109 Goal=   None    Shift=    0.000
 RMSDP=1.54D-04 MaxDP=8.91D-04 DE=-3.11D-04 OVMax= 2.02D-03

 Cycle  25  Pass 1  IDiag  1:
 E= -75.7343318723753     Delta-E=       -0.000001415132 Rises=F Damp=F
 DIIS: error= 1.36D-03 at cycle  25 NSaved=  13.
 NSaved=13 IEnMin=13 EnMin= -75.7343318723753     IErMin=11 ErrMin= 2.57D-04
 ErrMax= 1.36D-03  0.00D+00 EMaxC= 1.00D-01 BMatC= 2.03D-05 BMatP= 5.63D-07
 IDIUse=3 WtCom= 9.97D-01 WtEn= 2.57D-03
 Coeff-Com:  0.405D-01-0.468D-01-0.945D+00 0.144D+01-0.188D+01 0.205D+01
 Coeff-Com: -0.206D+01-0.121D+01-0.126D+01 0.154D+01 0.341D+01-0.125D+01
 Coeff-Com:  0.117D+01
 Coeff-En:   0.000D+00 0.000D+00 0.000D+00 0.000D+00 0.000D+00 0.000D+00
 Coeff-En:   0.000D+00 0.000D+00 0.000D+00 0.000D+00 0.000D+00 0.000D+00
 Coeff-En:   0.100D+01
 Coeff:      0.404D-01-0.467D-01-0.942D+00 0.144D+01-0.188D+01 0.205D+01
 Coeff:     -0.206D+01-0.120D+01-0.125D+01 0.153D+01 0.340D+01-0.125D+01
 Coeff:      0.117D+01
 Gap=     0.109 Goal=   None    Shift=    0.000
 RMSDP=6.69D-05 MaxDP=3.99D-04 DE=-1.42D-06 OVMax= 8.48D-04

 Cycle  26  Pass 1  IDiag  1:
 E= -75.7343316612316     Delta-E=        0.000000211144 Rises=F Damp=F
 DIIS: error= 1.40D-03 at cycle  26 NSaved=  14.
 NSaved=14 IEnMin=13 EnMin= -75.7343318723753     IErMin=11 ErrMin= 2.57D-04
 ErrMax= 1.40D-03  0.00D+00 EMaxC= 1.00D-01 BMatC= 2.14D-05 BMatP= 5.63D-07
 IDIUse=3 WtCom= 9.97D-01 WtEn= 2.57D-03
 Large coefficients: NSaved= 14 BigCof=  124.28 CofMax=   10.00 Det=-5.36D-12
 Inversion failed.  Reducing to 13 matrices.
 Large coefficients: NSaved= 13 BigCof=  127.76 CofMax=   10.00 Det=-6.44D-12
 Inversion failed.  Reducing to 12 matrices.
 Large coefficients: NSaved= 12 BigCof=  121.43 CofMax=   10.00 Det=-6.91D-12
 Inversion failed.  Reducing to 11 matrices.
 Large coefficients: NSaved= 11 BigCof=  139.20 CofMax=   10.00 Det=-7.34D-12
 Inversion failed.  Reducing to 10 matrices.
 Large coefficients: NSaved= 10 BigCof=   69.76 CofMax=   10.00 Det=-1.43D-11
 Inversion failed.  Reducing to  9 matrices.
 Large coefficients: NSaved=  9 BigCof=   64.30 CofMax=   10.00 Det=-1.86D-11
 Inversion failed.  Reducing to  8 matrices.
 Large coefficients: NSaved=  8 BigCof=   61.59 CofMax=   10.00 Det=-1.87D-11
 Inversion failed.  Reducing to  7 matrices.
 Rare condition: small coef for last iteration:  0.000D+00
 Coeff-Com:  0.912D-01-0.506D+00 0.412D+00 0.755D+00 0.261D+01 0.384D+01
 Coeff-Com: -0.620D+01
 Coeff-En:   0.000D+00 0.000D+00 0.000D+00 0.000D+00 0.000D+00 0.000D+00
 Coeff-En:   0.100D+01
 Coeff:      0.912D-01-0.506D+00 0.412D+00 0.755D+00 0.261D+01 0.384D+01
 Coeff:     -0.620D+01
 Gap=     0.109 Goal=   None    Shift=    0.000
 RMSDP=8.34D-03 MaxDP=4.36D-02 DE= 2.11D-07 OVMax= 8.93D-02

 Cycle  27  Pass 1  IDiag  1:
 E= -75.7341307012398     Delta-E=        0.000200959992 Rises=F Damp=F
 DIIS: error= 2.44D-04 at cycle  27 NSaved=   8.
 NSaved= 8 IEnMin= 6 EnMin= -75.7343318723753     IErMin= 8 ErrMin= 2.44D-04
 ErrMax= 2.44D-04  0.00D+00 EMaxC= 1.00D-01 BMatC= 4.49D-07 BMatP= 5.63D-07
 IDIUse=3 WtCom= 9.98D-01 WtEn= 2.44D-03
 Large coefficients: NSaved=  8 BigCof=   26.03 CofMax=   10.00 Det=-9.04D-11
 Inversion failed.  Reducing to  7 matrices.
 Large coefficients: NSaved=  7 BigCof=   32.14 CofMax=   10.00 Det=-9.90D-11
 Inversion failed.  Reducing to  6 matrices.
 Large coefficients: NSaved=  6 BigCof=   26.01 CofMax=   10.00 Det=-1.05D-10
 Inversion failed.  Reducing to  5 matrices.
 Large coefficients: NSaved=  5 BigCof=   26.27 CofMax=   10.00 Det=-1.05D-10
 Inversion failed.  Reducing to  4 matrices.
 Rare condition: small coef for last iteration:  0.000D+00
 Coeff-Com: -0.989D+00 0.464D+01-0.360D+01 0.950D+00
 Coeff-En:   0.000D+00 0.000D+00 0.000D+00 0.100D+01
 Coeff:     -0.989D+00 0.464D+01-0.360D+01 0.950D+00
 Gap=     0.109 Goal=   None    Shift=    0.000
 RMSDP=4.11D-04 MaxDP=1.89D-03 DE= 2.01D-04 OVMax= 3.88D-03

 Cycle  28  Pass 1  IDiag  1:
 E= -75.7341444906802     Delta-E=       -0.000013789440 Rises=F Damp=F
 DIIS: error= 2.44D-04 at cycle  28 NSaved=   5.
 NSaved= 5 IEnMin= 2 EnMin= -75.7343318723753     IErMin= 5 ErrMin= 2.44D-04
 ErrMax= 2.44D-04  0.00D+00 EMaxC= 1.00D-01 BMatC= 4.17D-07 BMatP= 4.49D-07
 IDIUse=3 WtCom= 9.98D-01 WtEn= 2.44D-03
 Large coefficients: NSaved=  5 BigCof=   18.26 CofMax=   10.00 Det=-1.15D-10
 Inversion failed.  Reducing to  4 matrices.
 Coeff-Com:  0.210D+01-0.191D+01-0.523D+01 0.604D+01
 Coeff-En:   0.000D+00 0.000D+00 0.000D+00 0.100D+01
 Coeff:      0.210D+01-0.191D+01-0.522D+01 0.603D+01
 Gap=     0.109 Goal=   None    Shift=    0.000
 RMSDP=3.56D-03 MaxDP=1.74D-02 DE=-1.38D-05 OVMax= 3.94D-02

 Cycle  29  Pass 1  IDiag  1:
 E= -75.7342549605504     Delta-E=       -0.000110469870 Rises=F Damp=F
 DIIS: error= 2.27D-04 at cycle  29 NSaved=   5.
 NSaved= 5 IEnMin= 1 EnMin= -75.7343318723753     IErMin= 5 ErrMin= 2.27D-04
 ErrMax= 2.27D-04  0.00D+00 EMaxC= 1.00D-01 BMatC= 5.56D-07 BMatP= 4.17D-07
 IDIUse=3 WtCom= 9.98D-01 WtEn= 2.44D-03
 Coeff-Com:  0.972D+01-0.929D+01-0.777D+01 0.758D+01 0.758D+00
 Coeff-En:   0.000D+00 0.000D+00 0.000D+00 0.000D+00 0.100D+01
 Coeff:      0.969D+01-0.926D+01-0.776D+01 0.757D+01 0.759D+00
 Gap=     0.109 Goal=   None    Shift=    0.000
 RMSDP=5.08D-03 MaxDP=2.69D-02 DE=-1.10D-04 OVMax= 6.71D-02

 Cycle  30  Pass 1  IDiag  1:
 E= -75.7343851572674     Delta-E=       -0.000130196717 Rises=F Damp=F
 DIIS: error= 3.52D-04 at cycle  30 NSaved=   6.
 NSaved= 6 IEnMin= 6 EnMin= -75.7343851572674     IErMin= 5 ErrMin= 2.27D-04
 ErrMax= 3.52D-04  0.00D+00 EMaxC= 1.00D-01 BMatC= 1.61D-06 BMatP= 4.17D-07
 IDIUse=3 WtCom= 9.98D-01 WtEn= 2.44D-03
 Large coefficients: NSaved=  6 BigCof=   12.55 CofMax=   10.00 Det=-4.06D-10
 Inversion failed.  Reducing to  5 matrices.
 Large coefficients: NSaved=  5 BigCof=   12.36 CofMax=   10.00 Det=-4.06D-10
 Inversion failed.  Reducing to  4 matrices.
 Coeff-Com:  0.303D+01-0.324D+01 0.954D-01 0.111D+01
 Coeff-En:   0.000D+00 0.000D+00 0.000D+00 0.100D+01
 Coeff:      0.302D+01-0.323D+01 0.952D-01 0.111D+01
 Gap=     0.109 Goal=   None    Shift=    0.000
 RMSDP=5.16D-04 MaxDP=3.03D-03 DE=-1.30D-04 OVMax= 5.77D-03

 Cycle  31  Pass 1  IDiag  1:
 E= -75.7343756244160     Delta-E=        0.000009532851 Rises=F Damp=F
 DIIS: error= 2.02D-04 at cycle  31 NSaved=   5.
 NSaved= 5 IEnMin= 4 EnMin= -75.7343851572674     IErMin= 5 ErrMin= 2.02D-04
 ErrMax= 2.02D-04  0.00D+00 EMaxC= 1.00D-01 BMatC= 2.60D-07 BMatP= 5.56D-07
 IDIUse=3 WtCom= 9.98D-01 WtEn= 2.02D-03
 Large coefficients: NSaved=  5 BigCof=   10.29 CofMax=   10.00 Det=-3.09D-10
 Inversion failed.  Reducing to  4 matrices.
 Rare condition: small coef for last iteration:  0.000D+00
 Coeff-Com:  0.213D+01-0.226D+01 0.752D+00 0.379D+00
 Coeff-En:   0.000D+00 0.000D+00 0.000D+00 0.100D+01
 Coeff:      0.213D+01-0.226D+01 0.752D+00 0.379D+00
 Gap=     0.109 Goal=   None    Shift=    0.000
 RMSDP=3.07D-04 MaxDP=1.67D-03 DE= 9.53D-06 OVMax= 3.08D-03

 Cycle  32  Pass 1  IDiag  1:
 E= -75.7343827897496     Delta-E=       -0.000007165334 Rises=F Damp=F
 DIIS: error= 2.02D-04 at cycle  32 NSaved=   5.
 NSaved= 5 IEnMin= 3 EnMin= -75.7343851572674     IErMin= 5 ErrMin= 2.02D-04
 ErrMax= 2.02D-04  0.00D+00 EMaxC= 1.00D-01 BMatC= 2.16D-07 BMatP= 2.60D-07
 IDIUse=3 WtCom= 9.98D-01 WtEn= 2.02D-03
 Coeff-Com: -0.231D+01 0.226D+01-0.253D-01-0.241D+00 0.132D+01
 Coeff-En:   0.000D+00 0.000D+00 0.000D+00 0.000D+00 0.100D+01
 Coeff:     -0.231D+01 0.225D+01-0.253D-01-0.241D+00 0.132D+01
 Gap=     0.109 Goal=   None    Shift=    0.000
 RMSDP=2.99D-04 MaxDP=1.66D-03 DE=-7.17D-06 OVMax= 2.88D-03

 Cycle  33  Pass 1  IDiag  1:
 E= -75.7343897141999     Delta-E=       -0.000006924450 Rises=F Damp=F
 DIIS: error= 1.98D-04 at cycle  33 NSaved=   6.
 NSaved= 6 IEnMin= 6 EnMin= -75.7343897141999     IErMin= 6 ErrMin= 1.98D-04
 ErrMax= 1.98D-04  0.00D+00 EMaxC= 1.00D-01 BMatC= 2.14D-07 BMatP= 2.16D-07
 IDIUse=3 WtCom= 9.98D-01 WtEn= 1.98D-03
 Large coefficients: NSaved=  6 BigCof=   22.63 CofMax=   10.00 Det=-4.71D-11
 Inversion failed.  Reducing to  5 matrices.
 Large coefficients: NSaved=  5 BigCof=   11.20 CofMax=   10.00 Det=-2.83D-10
 Inversion failed.  Reducing to  4 matrices.
 Coeff-Com: -0.301D-01-0.109D+01-0.463D+01 0.675D+01
 Coeff-En:   0.000D+00 0.000D+00 0.000D+00 0.100D+01
 Coeff:     -0.300D-01-0.109D+01-0.462D+01 0.674D+01
 Gap=     0.109 Goal=   None    Shift=    0.000
 RMSDP=2.09D-03 MaxDP=1.18D-02 DE=-6.92D-06 OVMax= 2.35D-02

 Cycle  34  Pass 1  IDiag  1:
 E= -75.7344348720858     Delta-E=       -0.000045157886 Rises=F Damp=F
 DIIS: error= 1.82D-04 at cycle  34 NSaved=   5.
 NSaved= 5 IEnMin= 5 EnMin= -75.7344348720858     IErMin= 5 ErrMin= 1.82D-04
 ErrMax= 1.82D-04  0.00D+00 EMaxC= 1.00D-01 BMatC= 1.97D-07 BMatP= 2.14D-07
 IDIUse=3 WtCom= 9.98D-01 WtEn= 1.82D-03
 Large coefficients: NSaved=  5 BigCof=   27.48 CofMax=   10.00 Det=-6.05D-11
 Inversion failed.  Reducing to  4 matrices.
 Coeff-Com: -0.447D+00 0.333D+01-0.604D+01 0.415D+01
 Coeff-En:   0.000D+00 0.000D+00 0.000D+00 0.100D+01
 Coeff:     -0.447D+00 0.333D+01-0.603D+01 0.415D+01
 Gap=     0.109 Goal=   None    Shift=    0.000
 RMSDP=5.59D-03 MaxDP=3.30D-02 DE=-4.52D-05 OVMax= 7.37D-02

 Cycle  35  Pass 1  IDiag  1:
 E= -75.7345260030282     Delta-E=       -0.000091130942 Rises=F Damp=F
 DIIS: error= 3.17D-04 at cycle  35 NSaved=   5.
 NSaved= 5 IEnMin= 5 EnMin= -75.7345260030282     IErMin= 4 ErrMin= 1.82D-04
 ErrMax= 3.17D-04  0.00D+00 EMaxC= 1.00D-01 BMatC= 1.05D-06 BMatP= 1.97D-07
 IDIUse=3 WtCom= 9.98D-01 WtEn= 1.82D-03
 Large coefficients: NSaved=  5 BigCof=   10.61 CofMax=   10.00 Det=-3.81D-10
 Inversion failed.  Reducing to  4 matrices.
 Coeff-Com: -0.422D+00-0.161D+01 0.288D+01 0.160D+00
 Coeff-En:   0.000D+00 0.000D+00 0.000D+00 0.100D+01
 Coeff:     -0.421D+00-0.161D+01 0.287D+01 0.162D+00
 Gap=     0.109 Goal=   None    Shift=    0.000
 RMSDP=4.20D-04 MaxDP=2.54D-03 DE=-9.11D-05 OVMax= 5.42D-03

 Cycle  36  Pass 1  IDiag  1:
 E= -75.7345213275904     Delta-E=        0.000004675438 Rises=F Damp=F
 DIIS: error= 2.40D-04 at cycle  36 NSaved=   5.
 NSaved= 5 IEnMin= 4 EnMin= -75.7345260030282     IErMin= 3 ErrMin= 1.82D-04
 ErrMax= 2.40D-04  0.00D+00 EMaxC= 1.00D-01 BMatC= 6.65D-07 BMatP= 1.97D-07
 IDIUse=3 WtCom= 9.98D-01 WtEn= 1.82D-03
 Rare condition: small coef for last iteration:  0.000D+00
 Coeff-Com: -0.765D+00 0.965D+00-0.439D+00 0.431D+00 0.807D+00
 Coeff-En:   0.000D+00 0.000D+00 0.000D+00 0.000D+00 0.100D+01
 Coeff:     -0.765D+00 0.965D+00-0.439D+00 0.431D+00 0.807D+00
 Gap=     0.109 Goal=   None    Shift=    0.000
 RMSDP=1.12D-03 MaxDP=6.48D-03 DE= 4.68D-06 OVMax= 1.28D-02

 Cycle  37  Pass 1  IDiag  1:
 E= -75.7345355856966     Delta-E=       -0.000014258106 Rises=F Damp=F
 DIIS: error= 1.37D-04 at cycle  37 NSaved=   6.
 NSaved= 6 IEnMin= 6 EnMin= -75.7345355856966     IErMin= 6 ErrMin= 1.37D-04
 ErrMax= 1.37D-04  0.00D+00 EMaxC= 1.00D-01 BMatC= 1.17D-07 BMatP= 1.97D-07
 IDIUse=3 WtCom= 9.99D-01 WtEn= 1.37D-03
 Coeff-Com:  0.150D+00 0.531D+00-0.134D+01-0.124D+00-0.107D+00 0.189D+01
 Coeff-En:   0.000D+00 0.000D+00 0.000D+00 0.000D+00 0.000D+00 0.100D+01
 Coeff:      0.150D+00 0.530D+00-0.134D+01-0.124D+00-0.107D+00 0.189D+01
 Gap=     0.109 Goal=   None    Shift=    0.000
 RMSDP=2.95D-03 MaxDP=1.79D-02 DE=-1.43D-05 OVMax= 3.71D-02

 Cycle  38  Pass 1  IDiag  1:
 E= -75.7345638198144     Delta-E=       -0.000028234118 Rises=F Damp=F
 DIIS: error= 1.17D-04 at cycle  38 NSaved=   7.
 NSaved= 7 IEnMin= 7 EnMin= -75.7345638198144     IErMin= 7 ErrMin= 1.17D-04
 ErrMax= 1.17D-04  0.00D+00 EMaxC= 1.00D-01 BMatC= 2.00D-07 BMatP= 1.17D-07
 IDIUse=3 WtCom= 9.99D-01 WtEn= 1.37D-03
 Coeff-Com: -0.863D-02-0.745D+00 0.155D+01-0.474D+00-0.409D+00-0.906D+00
 Coeff-Com:  0.199D+01
 Coeff-En:   0.000D+00 0.000D+00 0.000D+00 0.000D+00 0.000D+00 0.000D+00
 Coeff-En:   0.100D+01
 Coeff:     -0.862D-02-0.744D+00 0.155D+01-0.474D+00-0.409D+00-0.905D+00
 Coeff:      0.199D+01
 Gap=     0.109 Goal=   None    Shift=    0.000
 RMSDP=2.84D-04 MaxDP=1.70D-03 DE=-2.82D-05 OVMax= 3.44D-03

 Cycle  39  Pass 1  IDiag  1:
 E= -75.7345661085551     Delta-E=       -0.000002288741 Rises=F Damp=F
 DIIS: error= 1.35D-04 at cycle  39 NSaved=   8.
 NSaved= 8 IEnMin= 8 EnMin= -75.7345661085551     IErMin= 7 ErrMin= 1.17D-04
 ErrMax= 1.35D-04  0.00D+00 EMaxC= 1.00D-01 BMatC= 2.18D-07 BMatP= 1.17D-07
 IDIUse=3 WtCom= 9.99D-01 WtEn= 1.37D-03
 Coeff-Com: -0.129D+00 0.962D+00-0.967D+00 0.402D+00 0.259D+00-0.103D+01
 Coeff-Com:  0.497D+00 0.101D+01
 Coeff-En:   0.000D+00 0.000D+00 0.000D+00 0.000D+00 0.000D+00 0.000D+00
 Coeff-En:   0.000D+00 0.100D+01
 Coeff:     -0.128D+00 0.961D+00-0.966D+00 0.402D+00 0.259D+00-0.103D+01
 Coeff:      0.497D+00 0.101D+01
 Gap=     0.109 Goal=   None    Shift=    0.000
 RMSDP=1.18D-04 MaxDP=7.56D-04 DE=-2.29D-06 OVMax= 1.51D-03

 Cycle  40  Pass 1  IDiag  1:
 E= -75.7345670737464     Delta-E=       -0.000000965191 Rises=F Damp=F
 DIIS: error= 2.12D-04 at cycle  40 NSaved=   9.
 NSaved= 9 IEnMin= 9 EnMin= -75.7345670737464     IErMin= 7 ErrMin= 1.17D-04
 ErrMax= 2.12D-04  0.00D+00 EMaxC= 1.00D-01 BMatC= 4.06D-07 BMatP= 1.17D-07
 IDIUse=3 WtCom= 9.99D-01 WtEn= 1.37D-03
 Coeff-Com: -0.117D+00 0.981D+00-0.984D+00 0.415D+00 0.239D+00-0.108D+01
 Coeff-Com:  0.289D+00 0.198D+01-0.723D+00
 Coeff-En:   0.000D+00 0.000D+00 0.000D+00 0.000D+00 0.000D+00 0.000D+00
 Coeff-En:   0.000D+00 0.000D+00 0.100D+01
 Coeff:     -0.117D+00 0.979D+00-0.983D+00 0.414D+00 0.239D+00-0.108D+01
 Coeff:      0.288D+00 0.198D+01-0.721D+00
 Gap=     0.109 Goal=   None    Shift=    0.000
 RMSDP=2.71D-05 MaxDP=1.47D-04 DE=-9.65D-07 OVMax= 2.92D-04

 Cycle  41  Pass 1  IDiag  1:
 E= -75.7345665806714     Delta-E=        0.000000493075 Rises=F Damp=F
 DIIS: error= 2.26D-04 at cycle  41 NSaved=  10.
 NSaved=10 IEnMin= 9 EnMin= -75.7345670737464     IErMin= 7 ErrMin= 1.17D-04
 ErrMax= 2.26D-04  0.00D+00 EMaxC= 1.00D-01 BMatC= 4.52D-07 BMatP= 1.17D-07
 IDIUse=3 WtCom= 9.99D-01 WtEn= 1.37D-03
 Large coefficients: NSaved= 10 BigCof=  239.29 CofMax=   10.00 Det=-3.29D-13
 Inversion failed.  Reducing to  9 matrices.
 Large coefficients: NSaved=  9 BigCof=  227.09 CofMax=   10.00 Det=-3.49D-13
 Inversion failed.  Reducing to  8 matrices.
 Large coefficients: NSaved=  8 BigCof=  217.10 CofMax=   10.00 Det=-3.59D-13
 Inversion failed.  Reducing to  7 matrices.
 Large coefficients: NSaved=  7 BigCof=  198.68 CofMax=   10.00 Det=-4.37D-13
 Inversion failed.  Reducing to  6 matrices.
 Large coefficients: NSaved=  6 BigCof=  124.55 CofMax=   10.00 Det=-6.34D-13
 Inversion failed.  Reducing to  5 matrices.
 Large coefficients: NSaved=  5 BigCof=  106.94 CofMax=   10.00 Det=-7.55D-13
 Inversion failed.  Reducing to  4 matrices.
 Large coefficients: NSaved=  4 BigCof=   85.98 CofMax=   10.00 Det=-1.04D-12
 Inversion failed.  Reducing to  3 matrices.
 Large coefficients: NSaved=  3 BigCof=   42.20 CofMax=   10.00 Det=-2.82D-12
 Inversion failed.  Reducing to  2 matrices.
 Large coefficients: NSaved=  2 BigCof=   15.05 CofMax=   10.00 Det=-1.59D-09
 Coeff-Com:  0.151D+02-0.141D+02
 Coeff-En:   0.000D+00 0.100D+01
 Coeff:      0.150D+02-0.140D+02
 Gap=     0.109 Goal=   None    Shift=    0.000
 RMSDP=4.42D-04 MaxDP=2.37D-03 DE= 4.93D-07 OVMax= 5.82D-03

 Cycle  42  Pass 1  IDiag  1:
 E= -75.7345739113298     Delta-E=       -0.000007330658 Rises=F Damp=F
 DIIS: error= 1.10D-04 at cycle  42 NSaved=   3.
 NSaved= 3 IEnMin= 3 EnMin= -75.7345739113298     IErMin= 3 ErrMin= 1.10D-04
 ErrMax= 1.10D-04  0.00D+00 EMaxC= 1.00D-01 BMatC= 9.24D-08 BMatP= 4.06D-07
 IDIUse=3 WtCom= 9.99D-01 WtEn= 1.10D-03
 Coeff-Com:  0.590D+01-0.550D+01 0.605D+00
 Coeff-En:   0.000D+00 0.000D+00 0.100D+01
 Coeff:      0.589D+01-0.550D+01 0.606D+00
 Gap=     0.109 Goal=   None    Shift=    0.000
 RMSDP=2.35D-05 MaxDP=1.10D-04 DE=-7.33D-06 OVMax= 2.70D-04

 Cycle  43  Pass 1  IDiag  1:
 E= -75.7345742412054     Delta-E=       -0.000000329876 Rises=F Damp=F
 DIIS: error= 1.11D-04 at cycle  43 NSaved=   4.
 NSaved= 4 IEnMin= 4 EnMin= -75.7345742412054     IErMin= 3 ErrMin= 1.10D-04
 ErrMax= 1.11D-04  0.00D+00 EMaxC= 1.00D-01 BMatC= 9.36D-08 BMatP= 9.24D-08
 IDIUse=3 WtCom= 9.99D-01 WtEn= 1.10D-03
 Large coefficients: NSaved=  4 BigCof=   30.78 CofMax=   10.00 Det=-7.57D-13
 Inversion failed.  Reducing to  3 matrices.
 Coeff-Com: -0.286D-03 0.621D+00 0.379D+00
 Coeff-En:   0.000D+00 0.000D+00 0.100D+01
 Coeff:     -0.286D-03 0.621D+00 0.380D+00
 Gap=     0.109 Goal=   None    Shift=    0.000
 RMSDP=2.41D-05 MaxDP=1.24D-04 DE=-3.30D-07 OVMax= 3.03D-04

 Cycle  44  Pass 1  IDiag  1:
 E= -75.7345746172936     Delta-E=       -0.000000376088 Rises=F Damp=F
 DIIS: error= 1.10D-04 at cycle  44 NSaved=   4.
 NSaved= 4 IEnMin= 4 EnMin= -75.7345746172936     IErMin= 4 ErrMin= 1.10D-04
 ErrMax= 1.10D-04  0.00D+00 EMaxC= 1.00D-01 BMatC= 9.14D-08 BMatP= 9.24D-08
 IDIUse=3 WtCom= 9.99D-01 WtEn= 1.10D-03
 Large coefficients: NSaved=  4 BigCof=   12.89 CofMax=   10.00 Det=-4.98D-11
 Inversion failed.  Reducing to  3 matrices.
 Large coefficients: NSaved=  3 BigCof=   10.06 CofMax=   10.00 Det=-6.39D-11
 Inversion failed.  Reducing to  2 matrices.
 Coeff-Com: -0.267D+00 0.127D+01
 Coeff-En:   0.000D+00 0.100D+01
 Coeff:     -0.267D+00 0.127D+01
 Gap=     0.109 Goal=   None    Shift=    0.000
 RMSDP=4.29D-05 MaxDP=2.23D-04 DE=-3.76D-07 OVMax= 5.49D-04

 Cycle  45  Pass 1  IDiag  1:
 E= -75.7345752871057     Delta-E=       -0.000000669812 Rises=F Damp=F
 DIIS: error= 1.10D-04 at cycle  45 NSaved=   3.
 NSaved= 3 IEnMin= 3 EnMin= -75.7345752871057     IErMin= 3 ErrMin= 1.10D-04
 ErrMax= 1.10D-04  0.00D+00 EMaxC= 1.00D-01 BMatC= 9.15D-08 BMatP= 9.14D-08
 IDIUse=3 WtCom= 9.99D-01 WtEn= 1.10D-03
 Large coefficients: NSaved=  3 BigCof=   35.93 CofMax=   10.00 Det=-1.75D-11
 Inversion failed.  Reducing to  2 matrices.
 Coeff-Com:  0.591D+00 0.409D+00
 Coeff-En:   0.000D+00 0.100D+01
 Coeff:      0.590D+00 0.410D+00
 Gap=     0.109 Goal=   None    Shift=    0.000
 RMSDP=1.33D-05 MaxDP=5.89D-05 DE=-6.70D-07 OVMax= 1.44D-04

 Cycle  46  Pass 1  IDiag  1:
 E= -75.7345754606047     Delta-E=       -0.000000173499 Rises=F Damp=F
 DIIS: error= 1.10D-04 at cycle  46 NSaved=   3.
 NSaved= 3 IEnMin= 3 EnMin= -75.7345754606047     IErMin= 3 ErrMin= 1.10D-04
 ErrMax= 1.10D-04  0.00D+00 EMaxC= 1.00D-01 BMatC= 9.17D-08 BMatP= 9.14D-08
 IDIUse=3 WtCom= 9.99D-01 WtEn= 1.10D-03
 Large coefficients: NSaved=  3 BigCof=   56.29 CofMax=   10.00 Det=-3.61D-12
 Inversion failed.  Reducing to  2 matrices.
 Coeff-Com:  0.555D+00 0.445D+00
 Coeff-En:   0.000D+00 0.100D+01
 Coeff:      0.554D+00 0.446D+00
 Gap=     0.109 Goal=   None    Shift=    0.000
 RMSDP=3.10D-05 MaxDP=1.58D-04 DE=-1.73D-07 OVMax= 3.87D-04

 Cycle  47  Pass 1  IDiag  1:
 E= -75.7345759363271     Delta-E=       -0.000000475722 Rises=F Damp=F
 DIIS: error= 1.10D-04 at cycle  47 NSaved=   3.
 NSaved= 3 IEnMin= 3 EnMin= -75.7345759363271     IErMin= 2 ErrMin= 1.10D-04
 ErrMax= 1.10D-04  0.00D+00 EMaxC= 1.00D-01 BMatC= 9.09D-08 BMatP= 9.15D-08
 IDIUse=3 WtCom= 9.99D-01 WtEn= 1.10D-03
 Large coefficients: NSaved=  3 BigCof=  180.14 CofMax=   10.00 Det=-1.29D-12
 Inversion failed.  Reducing to  2 matrices.
 Coeff-Com:  0.275D+00 0.725D+00
 Coeff-En:   0.000D+00 0.100D+01
 Coeff:      0.274D+00 0.726D+00
 Gap=     0.109 Goal=   None    Shift=    0.000
 RMSDP=2.81D-05 MaxDP=1.47D-04 DE=-4.76D-07 OVMax= 3.60D-04

 Cycle  48  Pass 1  IDiag  1:
 E= -75.7345763757702     Delta-E=       -0.000000439443 Rises=F Damp=F
 DIIS: error= 1.10D-04 at cycle  48 NSaved=   3.
 NSaved= 3 IEnMin= 3 EnMin= -75.7345763757702     IErMin= 3 ErrMin= 1.10D-04
 ErrMax= 1.10D-04  0.00D+00 EMaxC= 1.00D-01 BMatC= 9.04D-08 BMatP= 9.09D-08
 IDIUse=3 WtCom= 9.99D-01 WtEn= 1.10D-03
 Large coefficients: NSaved=  3 BigCof=  359.95 CofMax=   10.00 Det=-8.90D-13
 Inversion failed.  Reducing to  2 matrices.
 Coeff-Com: -0.913D+00 0.191D+01
 Coeff-En:   0.000D+00 0.100D+01
 Coeff:     -0.912D+00 0.191D+01
 Gap=     0.109 Goal=   None    Shift=    0.000
 RMSDP=6.22D-05 MaxDP=3.24D-04 DE=-4.39D-07 OVMax= 7.94D-04

 Cycle  49  Pass 1  IDiag  1:
 E= -75.7345773350322     Delta-E=       -0.000000959262 Rises=F Damp=F
 DIIS: error= 1.10D-04 at cycle  49 NSaved=   3.
 NSaved= 3 IEnMin= 3 EnMin= -75.7345773350322     IErMin= 3 ErrMin= 1.10D-04
 ErrMax= 1.10D-04  0.00D+00 EMaxC= 1.00D-01 BMatC= 9.16D-08 BMatP= 9.04D-08
 IDIUse=3 WtCom= 9.99D-01 WtEn= 1.10D-03
 Large coefficients: NSaved=  3 BigCof=  328.84 CofMax=   10.00 Det=-6.41D-13
 Inversion failed.  Reducing to  2 matrices.
 Coeff-Com:  0.884D+00 0.116D+00
 Coeff-En:   0.000D+00 0.100D+01
 Coeff:      0.883D+00 0.117D+00
 Gap=     0.109 Goal=   None    Shift=    0.000
 RMSDP=1.99D-05 MaxDP=9.59D-05 DE=-9.59D-07 OVMax= 2.35D-04

 Cycle  50  Pass 1  IDiag  1:
 E= -75.7345770539036     Delta-E=        0.000000281129 Rises=F Damp=F
 DIIS: error= 1.09D-04 at cycle  50 NSaved=   3.
 NSaved= 3 IEnMin= 2 EnMin= -75.7345773350322     IErMin= 3 ErrMin= 1.09D-04
 ErrMax= 1.09D-04  0.00D+00 EMaxC= 1.00D-01 BMatC= 9.01D-08 BMatP= 9.04D-08
 IDIUse=3 WtCom= 9.99D-01 WtEn= 1.09D-03
 Large coefficients: NSaved=  3 BigCof=  352.36 CofMax=   10.00 Det=-5.93D-13
 Inversion failed.  Reducing to  2 matrices.
 Coeff-Com:  0.226D+00 0.774D+00
 Coeff-En:   0.000D+00 0.100D+01
 Coeff:      0.225D+00 0.775D+00
 Gap=     0.109 Goal=   None    Shift=    0.000
 RMSDP=4.05D-05 MaxDP=2.11D-04 DE= 2.81D-07 OVMax= 5.18D-04

 Cycle  51  Pass 1  IDiag  1:
 E= -75.7345776828162     Delta-E=       -0.000000628913 Rises=F Damp=F
 DIIS: error= 1.09D-04 at cycle  51 NSaved=   3.
 NSaved= 3 IEnMin= 3 EnMin= -75.7345776828162     IErMin= 3 ErrMin= 1.09D-04
 ErrMax= 1.09D-04  0.00D+00 EMaxC= 1.00D-01 BMatC= 8.97D-08 BMatP= 9.01D-08
 IDIUse=3 WtCom= 9.99D-01 WtEn= 1.09D-03
 Large coefficients: NSaved=  3 BigCof=  525.36 CofMax=   10.00 Det=-6.28D-13
 Inversion failed.  Reducing to  2 matrices.
 Coeff-Com: -0.212D+00 0.121D+01
 Coeff-En:   0.000D+00 0.100D+01
 Coeff:     -0.212D+00 0.121D+01
 Gap=     0.109 Goal=   None    Shift=    0.000
 RMSDP=4.48D-05 MaxDP=2.34D-04 DE=-6.29D-07 OVMax= 5.74D-04

 Cycle  52  Pass 1  IDiag  1:
 E= -75.7345783753028     Delta-E=       -0.000000692487 Rises=F Damp=F
 DIIS: error= 1.09D-04 at cycle  52 NSaved=   3.
 NSaved= 3 IEnMin= 3 EnMin= -75.7345783753028     IErMin= 3 ErrMin= 1.09D-04
 ErrMax= 1.09D-04  0.00D+00 EMaxC= 1.00D-01 BMatC= 8.97D-08 BMatP= 8.97D-08
 IDIUse=3 WtCom= 9.99D-01 WtEn= 1.09D-03
 Large coefficients: NSaved=  3 BigCof=  267.70 CofMax=   10.00 Det=-1.09D-12
 Inversion failed.  Reducing to  2 matrices.
 Coeff-Com:  0.513D+00 0.487D+00
 Coeff-En:   0.000D+00 0.100D+01
 Coeff:      0.513D+00 0.487D+00
 Gap=     0.109 Goal=   None    Shift=    0.000
 RMSDP=1.55D-05 MaxDP=6.90D-05 DE=-6.92D-07 OVMax= 1.69D-04

 Cycle  53  Pass 1  IDiag  1:
 E= -75.7345785787034     Delta-E=       -0.000000203401 Rises=F Damp=F
 DIIS: error= 1.09D-04 at cycle  53 NSaved=   3.
 NSaved= 3 IEnMin= 3 EnMin= -75.7345785787034     IErMin= 2 ErrMin= 1.09D-04
 ErrMax= 1.09D-04  0.00D+00 EMaxC= 1.00D-01 BMatC= 9.03D-08 BMatP= 8.97D-08
 IDIUse=3 WtCom= 9.99D-01 WtEn= 1.09D-03
 Large coefficients: NSaved=  3 BigCof=  352.18 CofMax=   10.00 Det=-6.35D-13
 Inversion failed.  Reducing to  2 matrices.
 Coeff-Com:  0.592D+00 0.408D+00
 Coeff-En:   0.000D+00 0.100D+01
 Coeff:      0.592D+00 0.408D+00
 Gap=     0.109 Goal=   None    Shift=    0.000
 RMSDP=2.84D-05 MaxDP=1.48D-04 DE=-2.03D-07 OVMax= 3.63D-04

 Cycle  54  Pass 1  IDiag  1:
 E= -75.7345790200574     Delta-E=       -0.000000441354 Rises=F Damp=F
 DIIS: error= 1.09D-04 at cycle  54 NSaved=   3.
 NSaved= 3 IEnMin= 3 EnMin= -75.7345790200574     IErMin= 1 ErrMin= 1.09D-04
 ErrMax= 1.09D-04  0.00D+00 EMaxC= 1.00D-01 BMatC= 8.90D-08 BMatP= 8.97D-08
 IDIUse=3 WtCom= 9.99D-01 WtEn= 1.09D-03
 Large coefficients: NSaved=  3 BigCof=  527.75 CofMax=   10.00 Det=-9.88D-13
 Inversion failed.  Reducing to  2 matrices.
 Coeff-Com: -0.505D+00 0.150D+01
 Coeff-En:   0.000D+00 0.100D+01
 Coeff:     -0.504D+00 0.150D+01
 Gap=     0.109 Goal=   None    Shift=    0.000
 RMSDP=5.04D-05 MaxDP=2.63D-04 DE=-4.41D-07 OVMax= 6.45D-04

 Cycle  55  Pass 1  IDiag  1:
 E= -75.7345797950819     Delta-E=       -0.000000775025 Rises=F Damp=F
 DIIS: error= 1.09D-04 at cycle  55 NSaved=   3.
 NSaved= 3 IEnMin= 3 EnMin= -75.7345797950819     IErMin= 3 ErrMin= 1.09D-04
 ErrMax= 1.09D-04  0.00D+00 EMaxC= 1.00D-01 BMatC= 8.92D-08 BMatP= 8.90D-08
 IDIUse=3 WtCom= 9.99D-01 WtEn= 1.09D-03
 Large coefficients: NSaved=  3 BigCof=  254.70 CofMax=   10.00 Det=-2.26D-12
 Inversion failed.  Reducing to  2 matrices.
 Coeff-Com:  0.804D+00 0.196D+00
 Coeff-En:   0.000D+00 0.100D+01
 Coeff:      0.803D+00 0.197D+00
 Gap=     0.109 Goal=   None    Shift=    0.000
 RMSDP=8.75D-06 MaxDP=5.66D-05 DE=-7.75D-07 OVMax= 1.05D-04

 Cycle  56  Pass 1  IDiag  1:
 E= -75.7345797267981     Delta-E=        0.000000068284 Rises=F Damp=F
 DIIS: error= 1.08D-04 at cycle  56 NSaved=   3.
 NSaved= 3 IEnMin= 2 EnMin= -75.7345797950819     IErMin= 3 ErrMin= 1.08D-04
 ErrMax= 1.08D-04  0.00D+00 EMaxC= 1.00D-01 BMatC= 8.92D-08 BMatP= 8.90D-08
 IDIUse=3 WtCom= 9.99D-01 WtEn= 1.08D-03
 Large coefficients: NSaved=  3 BigCof=  370.62 CofMax=   10.00 Det=-5.69D-13
 Inversion failed.  Reducing to  2 matrices.
 Coeff-Com:  0.499D+00 0.501D+00
 Coeff-En:   0.000D+00 0.100D+01
 Coeff:      0.498D+00 0.502D+00
 Gap=     0.109 Goal=   None    Shift=    0.000
 RMSDP=3.85D-05 MaxDP=2.00D-04 DE= 6.83D-08 OVMax= 4.89D-04

 Cycle  57  Pass 1  IDiag  1:
 E= -75.7345803176854     Delta-E=       -0.000000590887 Rises=F Damp=F
 DIIS: error= 1.09D-04 at cycle  57 NSaved=   3.
 NSaved= 3 IEnMin= 3 EnMin= -75.7345803176854     IErMin= 2 ErrMin= 1.08D-04
 ErrMax= 1.09D-04  0.00D+00 EMaxC= 1.00D-01 BMatC= 8.83D-08 BMatP= 8.92D-08
 IDIUse=3 WtCom= 9.99D-01 WtEn= 1.08D-03
 Large coefficients: NSaved=  3 BigCof=  515.71 CofMax=   10.00 Det=-6.21D-13
 Inversion failed.  Reducing to  2 matrices.
 Coeff-Com:  0.161D+00 0.839D+00
 Coeff-En:   0.000D+00 0.100D+01
 Coeff:      0.160D+00 0.840D+00
 Gap=     0.109 Goal=   None    Shift=    0.000
 RMSDP=2.98D-05 MaxDP=1.56D-04 DE=-5.91D-07 OVMax= 3.83D-04

 Cycle  58  Pass 1  IDiag  1:
 E= -75.7345807764329     Delta-E=       -0.000000458747 Rises=F Damp=F
 DIIS: error= 1.08D-04 at cycle  58 NSaved=   3.
 NSaved= 3 IEnMin= 3 EnMin= -75.7345807764329     IErMin= 3 ErrMin= 1.08D-04
 ErrMax= 1.08D-04  0.00D+00 EMaxC= 1.00D-01 BMatC= 8.79D-08 BMatP= 8.83D-08
 IDIUse=3 WtCom= 9.99D-01 WtEn= 1.08D-03
 Large coefficients: NSaved=  3 BigCof=  411.14 CofMax=   10.00 Det=-1.17D-12
 Inversion failed.  Reducing to  2 matrices.
 Coeff-Com: -0.480D+00 0.148D+01
 Coeff-En:   0.000D+00 0.100D+01
 Coeff:     -0.479D+00 0.148D+01
 Gap=     0.109 Goal=   None    Shift=    0.000
 RMSDP=5.05D-05 MaxDP=2.62D-04 DE=-4.59D-07 OVMax= 6.43D-04

 Cycle  59  Pass 1  IDiag  1:
 E= -75.7345815406432     Delta-E=       -0.000000764210 Rises=F Damp=F
 DIIS: error= 1.08D-04 at cycle  59 NSaved=   3.
 NSaved= 3 IEnMin= 3 EnMin= -75.7345815406432     IErMin= 2 ErrMin= 1.08D-04
 ErrMax= 1.08D-04  0.00D+00 EMaxC= 1.00D-01 BMatC= 8.92D-08 BMatP= 8.79D-08
 IDIUse=3 WtCom= 9.99D-01 WtEn= 1.08D-03
 Large coefficients: NSaved=  3 BigCof=  401.88 CofMax=   10.00 Det=-4.82D-13
 Inversion failed.  Reducing to  2 matrices.
 Coeff-Com:  0.823D+00 0.177D+00
 Coeff-En:   0.000D+00 0.100D+01
 Coeff:      0.822D+00 0.178D+00
 Gap=     0.109 Goal=   None    Shift=    0.000
 RMSDP=8.52D-06 MaxDP=4.95D-05 DE=-7.64D-07 OVMax= 9.24D-05

 Cycle  60  Pass 1  IDiag  1:
 E= -75.7345814640576     Delta-E=        0.000000076586 Rises=F Damp=F
 DIIS: error= 1.08D-04 at cycle  60 NSaved=   3.
 NSaved= 3 IEnMin= 2 EnMin= -75.7345815406432     IErMin= 3 ErrMin= 1.08D-04
 ErrMax= 1.08D-04  0.00D+00 EMaxC= 1.00D-01 BMatC= 8.75D-08 BMatP= 8.79D-08
 IDIUse=3 WtCom= 9.99D-01 WtEn= 1.08D-03
 Large coefficients: NSaved=  3 BigCof=  401.36 CofMax=   10.00 Det=-4.82D-13
 Inversion failed.  Reducing to  2 matrices.
 Coeff-Com:  0.101D+00 0.899D+00
 Coeff-En:   0.000D+00 0.100D+01
 Coeff:      0.101D+00 0.899D+00
 Gap=     0.109 Goal=   None    Shift=    0.000
 RMSDP=3.64D-05 MaxDP=1.90D-04 DE= 7.66D-08 OVMax= 4.66D-04

 Cycle  61  Pass 1  IDiag  1:
 E= -75.7345820208651     Delta-E=       -0.000000556808 Rises=F Damp=F
 DIIS: error= 1.08D-04 at cycle  61 NSaved=   3.
 NSaved= 3 IEnMin= 3 EnMin= -75.7345820208651     IErMin= 3 ErrMin= 1.08D-04
 ErrMax= 1.08D-04  0.00D+00 EMaxC= 1.00D-01 BMatC= 8.73D-08 BMatP= 8.75D-08
 IDIUse=3 WtCom= 9.99D-01 WtEn= 1.08D-03
 Large coefficients: NSaved=  3 BigCof=  518.87 CofMax=   10.00 Det=-5.93D-13
 Inversion failed.  Reducing to  2 matrices.
 Coeff-Com: -0.110D+00 0.111D+01
 Coeff-En:   0.000D+00 0.100D+01
 Coeff:     -0.110D+00 0.111D+01
 Gap=     0.109 Goal=   None    Shift=    0.000
 RMSDP=3.99D-05 MaxDP=2.08D-04 DE=-5.57D-07 OVMax= 5.10D-04

 Cycle  62  Pass 1  IDiag  1:
 E= -75.7345826257953     Delta-E=       -0.000000604930 Rises=F Damp=F
 DIIS: error= 1.08D-04 at cycle  62 NSaved=   3.
 NSaved= 3 IEnMin= 3 EnMin= -75.7345826257953     IErMin= 3 ErrMin= 1.08D-04
 ErrMax= 1.08D-04  0.00D+00 EMaxC= 1.00D-01 BMatC= 8.75D-08 BMatP= 8.73D-08
 IDIUse=3 WtCom= 9.99D-01 WtEn= 1.08D-03
 Large coefficients: NSaved=  3 BigCof=  342.22 CofMax=   10.00 Det=-6.58D-13
 Inversion failed.  Reducing to  2 matrices.
 Coeff-Com:  0.570D+00 0.430D+00
 Coeff-En:   0.000D+00 0.100D+01
 Coeff:      0.569D+00 0.431D+00
 Gap=     0.109 Goal=   None    Shift=    0.000
 RMSDP=1.51D-05 MaxDP=6.85D-05 DE=-6.05D-07 OVMax= 1.68D-04

 Cycle  63  Pass 1  IDiag  1:
 E= -75.7345828263779     Delta-E=       -0.000000200583 Rises=F Damp=F
 DIIS: error= 1.08D-04 at cycle  63 NSaved=   3.
 NSaved= 3 IEnMin= 3 EnMin= -75.7345828263779     IErMin= 2 ErrMin= 1.08D-04
 ErrMax= 1.08D-04  0.00D+00 EMaxC= 1.00D-01 BMatC= 8.75D-08 BMatP= 8.73D-08
 IDIUse=3 WtCom= 9.99D-01 WtEn= 1.08D-03
 Large coefficients: NSaved=  3 BigCof=  371.09 CofMax=   10.00 Det=-5.60D-13
 Inversion failed.  Reducing to  2 matrices.
 Coeff-Com:  0.505D+00 0.495D+00
 Coeff-En:   0.000D+00 0.100D+01
 Coeff:      0.505D+00 0.495D+00
 Gap=     0.109 Goal=   None    Shift=    0.000
 RMSDP=2.91D-05 MaxDP=1.52D-04 DE=-2.01D-07 OVMax= 3.73D-04

 Cycle  64  Pass 1  IDiag  1:
 E= -75.7345832716588     Delta-E=       -0.000000445281 Rises=F Damp=F
 DIIS: error= 1.08D-04 at cycle  64 NSaved=   3.
 NSaved= 3 IEnMin= 3 EnMin= -75.7345832716588     IErMin= 1 ErrMin= 1.08D-04
 ErrMax= 1.08D-04  0.00D+00 EMaxC= 1.00D-01 BMatC= 8.66D-08 BMatP= 8.75D-08
 IDIUse=3 WtCom= 9.99D-01 WtEn= 1.08D-03
 Large coefficients: NSaved=  3 BigCof=  527.99 CofMax=   10.00 Det=-7.12D-13
 Inversion failed.  Reducing to  2 matrices.
 Coeff-Com: -0.722D+00 0.172D+01
 Coeff-En:   0.000D+00 0.100D+01
 Coeff:     -0.721D+00 0.172D+01
 Gap=     0.109 Goal=   None    Shift=    0.000
 RMSDP=5.66D-05 MaxDP=2.96D-04 DE=-4.45D-07 OVMax= 7.25D-04

 Cycle  65  Pass 1  IDiag  1:
 E= -75.7345841290732     Delta-E=       -0.000000857414 Rises=F Damp=F
 DIIS: error= 1.08D-04 at cycle  65 NSaved=   3.
 NSaved= 3 IEnMin= 3 EnMin= -75.7345841290732     IErMin= 3 ErrMin= 1.08D-04
 ErrMax= 1.08D-04  0.00D+00 EMaxC= 1.00D-01 BMatC= 8.70D-08 BMatP= 8.66D-08
 IDIUse=3 WtCom= 9.99D-01 WtEn= 1.08D-03
 Large coefficients: NSaved=  3 BigCof=  236.87 CofMax=   10.00 Det=-1.37D-12
 Inversion failed.  Reducing to  2 matrices.
 Coeff-Com:  0.894D+00 0.106D+00
 Coeff-En:   0.000D+00 0.100D+01
 Coeff:      0.893D+00 0.107D+00
 Gap=     0.109 Goal=   None    Shift=    0.000
 RMSDP=1.67D-05 MaxDP=7.78D-05 DE=-8.57D-07 OVMax= 1.91D-04

 Cycle  66  Pass 1  IDiag  1:
 E= -75.7345839038082     Delta-E=        0.000000225265 Rises=F Damp=F
 DIIS: error= 1.07D-04 at cycle  66 NSaved=   3.
 NSaved= 3 IEnMin= 2 EnMin= -75.7345841290732     IErMin= 3 ErrMin= 1.07D-04
 ErrMax= 1.07D-04  0.00D+00 EMaxC= 1.00D-01 BMatC= 8.66D-08 BMatP= 8.66D-08
 IDIUse=3 WtCom= 9.99D-01 WtEn= 1.07D-03
 Large coefficients: NSaved=  3 BigCof=  358.18 CofMax=   10.00 Det=-5.95D-13
 Inversion failed.  Reducing to  2 matrices.
 Coeff-Com:  0.427D+00 0.573D+00
 Coeff-En:   0.000D+00 0.100D+01
 Coeff:      0.427D+00 0.573D+00
 Gap=     0.109 Goal=   None    Shift=    0.000
 RMSDP=4.20D-05 MaxDP=2.19D-04 DE= 2.25D-07 OVMax= 5.37D-04

 Cycle  67  Pass 1  IDiag  1:
 E= -75.7345845419630     Delta-E=       -0.000000638155 Rises=F Damp=F
 DIIS: error= 1.07D-04 at cycle  67 NSaved=   3.
 NSaved= 3 IEnMin= 3 EnMin= -75.7345845419630     IErMin= 3 ErrMin= 1.07D-04
 ErrMax= 1.07D-04  0.00D+00 EMaxC= 1.00D-01 BMatC= 8.58D-08 BMatP= 8.66D-08
 IDIUse=3 WtCom= 9.99D-01 WtEn= 1.07D-03
 Large coefficients: NSaved=  3 BigCof=  531.49 CofMax=   10.00 Det=-9.16D-13
 Inversion failed.  Reducing to  2 matrices.
 Coeff-Com:  0.413D-01 0.959D+00
 Coeff-En:   0.000D+00 0.100D+01
 Coeff:      0.412D-01 0.959D+00
 Gap=     0.109 Goal=   None    Shift=    0.000
 RMSDP=3.37D-05 MaxDP=1.77D-04 DE=-6.38D-07 OVMax= 4.33D-04

 Cycle  68  Pass 1  IDiag  1:
 E= -75.7345850531723     Delta-E=       -0.000000511209 Rises=F Damp=F
 DIIS: error= 1.07D-04 at cycle  68 NSaved=   3.
 NSaved= 3 IEnMin= 3 EnMin= -75.7345850531723     IErMin= 3 ErrMin= 1.07D-04
 ErrMax= 1.07D-04  0.00D+00 EMaxC= 1.00D-01 BMatC= 8.56D-08 BMatP= 8.58D-08
 IDIUse=3 WtCom= 9.99D-01 WtEn= 1.07D-03
 Large coefficients: NSaved=  3 BigCof=  313.13 CofMax=   10.00 Det=-2.50D-12
 Inversion failed.  Reducing to  2 matrices.
 Coeff-Com: -0.210D-01 0.102D+01
 Coeff-En:   0.000D+00 0.100D+01
 Coeff:     -0.210D-01 0.102D+01
 Gap=     0.109 Goal=   None    Shift=    0.000
 RMSDP=3.68D-05 MaxDP=1.89D-04 DE=-5.11D-07 OVMax= 4.63D-04

 Cycle  69  Pass 1  IDiag  1:
 E= -75.7345855951939     Delta-E=       -0.000000542022 Rises=F Damp=F
 DIIS: error= 1.07D-04 at cycle  69 NSaved=   3.
 NSaved= 3 IEnMin= 3 EnMin= -75.7345855951939     IErMin= 2 ErrMin= 1.07D-04
 ErrMax= 1.07D-04  0.00D+00 EMaxC= 1.00D-01 BMatC= 8.68D-08 BMatP= 8.56D-08
 IDIUse=3 WtCom= 9.99D-01 WtEn= 1.07D-03
 Large coefficients: NSaved=  3 BigCof=  390.05 CofMax=   10.00 Det=-5.00D-13
 Inversion failed.  Reducing to  2 matrices.
 Coeff-Com:  0.755D+00 0.245D+00
 Coeff-En:   0.000D+00 0.100D+01
 Coeff:      0.754D+00 0.246D+00
 Gap=     0.109 Goal=   None    Shift=    0.000
 RMSDP=9.79D-06 MaxDP=4.30D-05 DE=-5.42D-07 OVMax= 1.05D-04

 Cycle  70  Pass 1  IDiag  1:
 E= -75.7345857236126     Delta-E=       -0.000000128419 Rises=F Damp=F
 DIIS: error= 1.07D-04 at cycle  70 NSaved=   3.
 NSaved= 3 IEnMin= 3 EnMin= -75.7345857236126     IErMin= 3 ErrMin= 1.07D-04
 ErrMax= 1.07D-04  0.00D+00 EMaxC= 1.00D-01 BMatC= 8.51D-08 BMatP= 8.56D-08
 IDIUse=3 WtCom= 9.99D-01 WtEn= 1.07D-03
 Large coefficients: NSaved=  3 BigCof=  480.64 CofMax=   10.00 Det=-5.11D-13
 Inversion failed.  Reducing to  2 matrices.
 Coeff-Com: -0.443D-01 0.104D+01
 Coeff-En:   0.000D+00 0.100D+01
 Coeff:     -0.443D-01 0.104D+01
 Gap=     0.109 Goal=   None    Shift=    0.000
 RMSDP=3.57D-05 MaxDP=1.87D-04 DE=-1.28D-07 OVMax= 4.58D-04

 Cycle  71  Pass 1  IDiag  1:
 E= -75.7345862621269     Delta-E=       -0.000000538514 Rises=F Damp=F
 DIIS: error= 1.07D-04 at cycle  71 NSaved=   3.
 NSaved= 3 IEnMin= 3 EnMin= -75.7345862621269     IErMin= 3 ErrMin= 1.07D-04
 ErrMax= 1.07D-04  0.00D+00 EMaxC= 1.00D-01 BMatC= 8.50D-08 BMatP= 8.51D-08
 IDIUse=3 WtCom= 9.99D-01 WtEn= 1.07D-03
 Large coefficients: NSaved=  3 BigCof=  463.33 CofMax=   10.00 Det=-8.04D-13
 Inversion failed.  Reducing to  2 matrices.
 Coeff-Com:  0.176D+00 0.824D+00
 Coeff-En:   0.000D+00 0.100D+01
 Coeff:      0.176D+00 0.824D+00
 Gap=     0.109 Goal=   None    Shift=    0.000
 RMSDP=2.94D-05 MaxDP=1.52D-04 DE=-5.39D-07 OVMax= 3.73D-04

 Cycle  72  Pass 1  IDiag  1:
 E= -75.7345866966740     Delta-E=       -0.000000434547 Rises=F Damp=F
 DIIS: error= 1.07D-04 at cycle  72 NSaved=   3.
 NSaved= 3 IEnMin= 3 EnMin= -75.7345866966740     IErMin= 3 ErrMin= 1.07D-04
 ErrMax= 1.07D-04  0.00D+00 EMaxC= 1.00D-01 BMatC= 8.52D-08 BMatP= 8.50D-08
 IDIUse=3 WtCom= 9.99D-01 WtEn= 1.07D-03
 Large coefficients: NSaved=  3 BigCof=  392.86 CofMax=   10.00 Det=-4.89D-13
 Inversion failed.  Reducing to  2 matrices.
 Coeff-Com:  0.572D+00 0.428D+00
 Coeff-En:   0.000D+00 0.100D+01
 Coeff:      0.571D+00 0.429D+00
 Gap=     0.109 Goal=   None    Shift=    0.000
 RMSDP=1.99D-05 MaxDP=9.80D-05 DE=-4.35D-07 OVMax= 2.40D-04

 Cycle  73  Pass 1  IDiag  1:
 E= -75.7345869797765     Delta-E=       -0.000000283102 Rises=F Damp=F
 DIIS: error= 1.07D-04 at cycle  73 NSaved=   3.
 NSaved= 3 IEnMin= 3 EnMin= -75.7345869797765     IErMin= 2 ErrMin= 1.07D-04
 ErrMax= 1.07D-04  0.00D+00 EMaxC= 1.00D-01 BMatC= 8.49D-08 BMatP= 8.50D-08
 IDIUse=3 WtCom= 9.99D-01 WtEn= 1.07D-03
 Large coefficients: NSaved=  3 BigCof=  396.26 CofMax=   10.00 Det=-4.80D-13
 Inversion failed.  Reducing to  2 matrices.
 Coeff-Com:  0.412D+00 0.588D+00
 Coeff-En:   0.000D+00 0.100D+01
 Coeff:      0.411D+00 0.589D+00
 Gap=     0.109 Goal=   None    Shift=    0.000
 RMSDP=2.75D-05 MaxDP=1.45D-04 DE=-2.83D-07 OVMax= 3.54D-04

 Cycle  74  Pass 1  IDiag  1:
 E= -75.7345873948058     Delta-E=       -0.000000415029 Rises=F Damp=F
 DIIS: error= 1.07D-04 at cycle  74 NSaved=   3.
 NSaved= 3 IEnMin= 3 EnMin= -75.7345873948058     IErMin= 3 ErrMin= 1.07D-04
 ErrMax= 1.07D-04  0.00D+00 EMaxC= 1.00D-01 BMatC= 8.42D-08 BMatP= 8.49D-08
 IDIUse=3 WtCom= 9.99D-01 WtEn= 1.07D-03
 Large coefficients: NSaved=  3 BigCof=  527.59 CofMax=   10.00 Det=-6.02D-13
 Inversion failed.  Reducing to  2 matrices.
 Coeff-Com: -0.851D+00 0.185D+01
 Coeff-En:   0.000D+00 0.100D+01
 Coeff:     -0.850D+00 0.185D+01
 Gap=     0.109 Goal=   None    Shift=    0.000
 RMSDP=5.85D-05 MaxDP=3.07D-04 DE=-4.15D-07 OVMax= 7.51D-04

 Cycle  75  Pass 1  IDiag  1:
 E= -75.7345882685430     Delta-E=       -0.000000873737 Rises=F Damp=F
 DIIS: error= 1.07D-04 at cycle  75 NSaved=   3.
 NSaved= 3 IEnMin= 3 EnMin= -75.7345882685430     IErMin= 3 ErrMin= 1.07D-04
 ErrMax= 1.07D-04  0.00D+00 EMaxC= 1.00D-01 BMatC= 8.49D-08 BMatP= 8.42D-08
 IDIUse=3 WtCom= 9.99D-01 WtEn= 1.07D-03
 Large coefficients: NSaved=  3 BigCof=  304.20 CofMax=   10.00 Det=-8.11D-13
 Inversion failed.  Reducing to  2 matrices.
 Coeff-Com:  0.901D+00 0.987D-01
 Coeff-En:   0.000D+00 0.100D+01
 Coeff:      0.900D+00 0.997D-01
 Gap=     0.109 Goal=   None    Shift=    0.000
 RMSDP=1.90D-05 MaxDP=9.18D-05 DE=-8.74D-07 OVMax= 2.25D-04

 Cycle  76  Pass 1  IDiag  1:
 E= -75.7345880084589     Delta-E=        0.000000260084 Rises=F Damp=F
 DIIS: error= 1.06D-04 at cycle  76 NSaved=   3.
 NSaved= 3 IEnMin= 2 EnMin= -75.7345882685430     IErMin= 3 ErrMin= 1.06D-04
 ErrMax= 1.06D-04  0.00D+00 EMaxC= 1.00D-01 BMatC= 8.41D-08 BMatP= 8.42D-08
 IDIUse=3 WtCom= 9.99D-01 WtEn= 1.06D-03
 Large coefficients: NSaved=  3 BigCof=  365.34 CofMax=   10.00 Det=-5.60D-13
 Inversion failed.  Reducing to  2 matrices.
 Coeff-Com:  0.342D+00 0.658D+00
 Coeff-En:   0.000D+00 0.100D+01
 Coeff:      0.342D+00 0.658D+00
 Gap=     0.109 Goal=   None    Shift=    0.000
 RMSDP=4.11D-05 MaxDP=2.16D-04 DE= 2.60D-07 OVMax= 5.27D-04

 Cycle  77  Pass 1  IDiag  1:
 E= -75.7345886246070     Delta-E=       -0.000000616148 Rises=F Damp=F
 DIIS: error= 1.06D-04 at cycle  77 NSaved=   3.
 NSaved= 3 IEnMin= 3 EnMin= -75.7345886246070     IErMin= 3 ErrMin= 1.06D-04
 ErrMax= 1.06D-04  0.00D+00 EMaxC= 1.00D-01 BMatC= 8.35D-08 BMatP= 8.41D-08
 IDIUse=3 WtCom= 9.99D-01 WtEn= 1.06D-03
 Large coefficients: NSaved=  3 BigCof=  531.92 CofMax=   10.00 Det=-8.41D-13
 Inversion failed.  Reducing to  2 matrices.
 Coeff-Com: -0.639D-01 0.106D+01
 Coeff-En:   0.000D+00 0.100D+01
 Coeff:     -0.638D-01 0.106D+01
 Gap=     0.109 Goal=   None    Shift=    0.000
 RMSDP=3.76D-05 MaxDP=1.98D-04 DE=-6.16D-07 OVMax= 4.83D-04

 Cycle  78  Pass 1  IDiag  1:
 E= -75.7345891859998     Delta-E=       -0.000000561393 Rises=F Damp=F
 DIIS: error= 1.06D-04 at cycle  78 NSaved=   3.
 NSaved= 3 IEnMin= 3 EnMin= -75.7345891859998     IErMin= 3 ErrMin= 1.06D-04
 ErrMax= 1.06D-04  0.00D+00 EMaxC= 1.00D-01 BMatC= 8.34D-08 BMatP= 8.35D-08
 IDIUse=3 WtCom= 9.99D-01 WtEn= 1.06D-03
 Large coefficients: NSaved=  3 BigCof=  236.72 CofMax=   10.00 Det=-1.63D-12
 Inversion failed.  Reducing to  2 matrices.
 Coeff-Com:  0.294D+00 0.706D+00
 Coeff-En:   0.000D+00 0.100D+01
 Coeff:      0.293D+00 0.707D+00
 Gap=     0.109 Goal=   None    Shift=    0.000
 RMSDP=2.50D-05 MaxDP=1.26D-04 DE=-5.61D-07 OVMax= 3.07D-04

 Cycle  79  Pass 1  IDiag  1:
 E= -75.7345895399129     Delta-E=       -0.000000353913 Rises=F Damp=F
 DIIS: error= 1.06D-04 at cycle  79 NSaved=   3.
 NSaved= 3 IEnMin= 3 EnMin= -75.7345895399129     IErMin= 2 ErrMin= 1.06D-04
 ErrMax= 1.06D-04  0.00D+00 EMaxC= 1.00D-01 BMatC= 8.43D-08 BMatP= 8.34D-08
 IDIUse=3 WtCom= 9.99D-01 WtEn= 1.06D-03
 Large coefficients: NSaved=  3 BigCof=  373.02 CofMax=   10.00 Det=-5.34D-13
 Inversion failed.  Reducing to  2 matrices.
 Coeff-Com:  0.682D+00 0.318D+00
 Coeff-En:   0.000D+00 0.100D+01
 Coeff:      0.681D+00 0.319D+00
 Gap=     0.109 Goal=   None    Shift=    0.000
 RMSDP=1.91D-05 MaxDP=9.81D-05 DE=-3.54D-07 OVMax= 2.40D-04

 Cycle  80  Pass 1  IDiag  1:
 E= -75.7345898218106     Delta-E=       -0.000000281898 Rises=F Damp=F
 DIIS: error= 1.06D-04 at cycle  80 NSaved=   3.
 NSaved= 3 IEnMin= 3 EnMin= -75.7345898218106     IErMin= 3 ErrMin= 1.06D-04
 ErrMax= 1.06D-04  0.00D+00 EMaxC= 1.00D-01 BMatC= 8.28D-08 BMatP= 8.34D-08
 IDIUse=3 WtCom= 9.99D-01 WtEn= 1.06D-03
 Large coefficients: NSaved=  3 BigCof=  521.98 CofMax=   10.00 Det=-6.75D-13
 Inversion failed.  Reducing to  2 matrices.
 Coeff-Com: -0.214D+00 0.121D+01
 Coeff-En:   0.000D+00 0.100D+01
 Coeff:     -0.214D+00 0.121D+01
 Gap=     0.109 Goal=   None    Shift=    0.000
 RMSDP=3.88D-05 MaxDP=2.04D-04 DE=-2.82D-07 OVMax= 4.99D-04

 Cycle  81  Pass 1  IDiag  1:
 E= -75.7345903990215     Delta-E=       -0.000000577211 Rises=F Damp=F
 DIIS: error= 1.06D-04 at cycle  81 NSaved=   3.
 NSaved= 3 IEnMin= 3 EnMin= -75.7345903990215     IErMin= 3 ErrMin= 1.06D-04
 ErrMax= 1.06D-04  0.00D+00 EMaxC= 1.00D-01 BMatC= 8.28D-08 BMatP= 8.28D-08
 IDIUse=3 WtCom= 9.99D-01 WtEn= 1.06D-03
 Large coefficients: NSaved=  3 BigCof=  372.03 CofMax=   10.00 Det=-1.80D-12
 Inversion failed.  Reducing to  2 matrices.
 Coeff-Com:  0.509D+00 0.491D+00
 Coeff-En:   0.000D+00 0.100D+01
 Coeff:      0.508D+00 0.492D+00
 Gap=     0.109 Goal=   None    Shift=    0.000
 RMSDP=1.62D-05 MaxDP=7.96D-05 DE=-5.77D-07 OVMax= 1.94D-04

 Cycle  82  Pass 1  IDiag  1:
 E= -75.7345906216101     Delta-E=       -0.000000222589 Rises=F Damp=F
 DIIS: error= 1.06D-04 at cycle  82 NSaved=   3.
 NSaved= 3 IEnMin= 3 EnMin= -75.7345906216101     IErMin= 3 ErrMin= 1.06D-04
 ErrMax= 1.06D-04  0.00D+00 EMaxC= 1.00D-01 BMatC= 8.30D-08 BMatP= 8.28D-08
 IDIUse=3 WtCom= 9.99D-01 WtEn= 1.06D-03
 Large coefficients: NSaved=  3 BigCof=  401.68 CofMax=   10.00 Det=-4.58D-13
 Inversion failed.  Reducing to  2 matrices.
 Coeff-Com:  0.543D+00 0.457D+00
 Coeff-En:   0.000D+00 0.100D+01
 Coeff:      0.542D+00 0.458D+00
 Gap=     0.109 Goal=   None    Shift=    0.000
 RMSDP=2.72D-05 MaxDP=1.40D-04 DE=-2.23D-07 OVMax= 3.42D-04

 Cycle  83  Pass 1  IDiag  1:
 E= -75.7345910188287     Delta-E=       -0.000000397219 Rises=F Damp=F
 DIIS: error= 1.06D-04 at cycle  83 NSaved=   3.
 NSaved= 3 IEnMin= 3 EnMin= -75.7345910188287     IErMin= 2 ErrMin= 1.06D-04
 ErrMax= 1.06D-04  0.00D+00 EMaxC= 1.00D-01 BMatC= 8.24D-08 BMatP= 8.28D-08
 IDIUse=3 WtCom= 9.99D-01 WtEn= 1.06D-03
 Large coefficients: NSaved=  3 BigCof=  433.76 CofMax=   10.00 Det=-4.58D-13
 Inversion failed.  Reducing to  2 matrices.
 Coeff-Com:  0.312D+00 0.688D+00
 Coeff-En:   0.000D+00 0.100D+01
 Coeff:      0.311D+00 0.689D+00
 Gap=     0.109 Goal=   None    Shift=    0.000
 RMSDP=2.64D-05 MaxDP=1.39D-04 DE=-3.97D-07 OVMax= 3.40D-04

 Cycle  84  Pass 1  IDiag  1:
 E= -75.7345914117654     Delta-E=       -0.000000392937 Rises=F Damp=F
 DIIS: error= 1.05D-04 at cycle  84 NSaved=   3.
 NSaved= 3 IEnMin= 3 EnMin= -75.7345914117654     IErMin= 3 ErrMin= 1.05D-04
 ErrMax= 1.05D-04  0.00D+00 EMaxC= 1.00D-01 BMatC= 8.19D-08 BMatP= 8.24D-08
 IDIUse=3 WtCom= 9.99D-01 WtEn= 1.05D-03
 Large coefficients: NSaved=  3 BigCof=  499.21 CofMax=   10.00 Det=-6.58D-13
 Inversion failed.  Reducing to  2 matrices.
 Coeff-Com: -0.763D+00 0.176D+01
 Coeff-En:   0.000D+00 0.100D+01
 Coeff:     -0.763D+00 0.176D+01
 Gap=     0.109 Goal=   None    Shift=    0.000
 RMSDP=5.49D-05 MaxDP=2.89D-04 DE=-3.93D-07 OVMax= 7.05D-04

 Cycle  85  Pass 1  IDiag  1:
 E= -75.7345922186207     Delta-E=       -0.000000806855 Rises=F Damp=F
 DIIS: error= 1.05D-04 at cycle  85 NSaved=   3.
 NSaved= 3 IEnMin= 3 EnMin= -75.7345922186207     IErMin= 3 ErrMin= 1.05D-04
 ErrMax= 1.05D-04  0.00D+00 EMaxC= 1.00D-01 BMatC= 8.28D-08 BMatP= 8.19D-08
 IDIUse=3 WtCom= 9.99D-01 WtEn= 1.05D-03
 Large coefficients: NSaved=  3 BigCof=  368.40 CofMax=   10.00 Det=-5.41D-13
 Inversion failed.  Reducing to  2 matrices.
 Coeff-Com:  0.868D+00 0.132D+00
 Coeff-En:   0.000D+00 0.100D+01
 Coeff:      0.867D+00 0.133D+00
 Gap=     0.109 Goal=   None    Shift=    0.000
 RMSDP=1.46D-05 MaxDP=6.77D-05 DE=-8.07D-07 OVMax= 1.65D-04

 Cycle  86  Pass 1  IDiag  1:
 E= -75.7345920318269     Delta-E=        0.000000186794 Rises=F Damp=F
 DIIS: error= 1.05D-04 at cycle  86 NSaved=   3.
 NSaved= 3 IEnMin= 2 EnMin= -75.7345922186207     IErMin= 3 ErrMin= 1.05D-04
 ErrMax= 1.05D-04  0.00D+00 EMaxC= 1.00D-01 BMatC= 8.17D-08 BMatP= 8.19D-08
 IDIUse=3 WtCom= 9.99D-01 WtEn= 1.05D-03
 Large coefficients: NSaved=  3 BigCof=  386.30 CofMax=   10.00 Det=-4.90D-13
 Inversion failed.  Reducing to  2 matrices.
 Coeff-Com:  0.243D+00 0.757D+00
 Coeff-En:   0.000D+00 0.100D+01
 Coeff:      0.243D+00 0.757D+00
 Gap=     0.109 Goal=   None    Shift=    0.000
 RMSDP=3.77D-05 MaxDP=1.99D-04 DE= 1.87D-07 OVMax= 4.85D-04

 Cycle  87  Pass 1  IDiag  1:
 E= -75.7345925896966     Delta-E=       -0.000000557870 Rises=F Damp=F
 DIIS: error= 1.05D-04 at cycle  87 NSaved=   3.
[...]
 NSaved= 3 IEnMin= 3 EnMin= -75.7345975717553     IErMin= 3 ErrMin= 1.04D-04
 ErrMax= 1.04D-04  0.00D+00 EMaxC= 1.00D-01 BMatC= 7.85D-08 BMatP= 7.92D-08
 IDIUse=3 WtCom= 9.99D-01 WtEn= 1.04D-03
 Large coefficients: NSaved=  3 BigCof=  531.13 CofMax=   10.00 Det=-7.50D-13
 Inversion failed.  Reducing to  2 matrices.
 Coeff-Com: -0.586D+00 0.159D+01
 Coeff-En:   0.000D+00 0.100D+01
 Coeff:     -0.585D+00 0.158D+01
 Gap=     0.109 Goal=   None    Shift=    0.000
 RMSDP=4.92D-05 MaxDP=2.60D-04 DE=-3.81D-07 OVMax= 6.33D-04

 Cycle 101  Pass 1  IDiag  1:
 E= -75.7345982815945     Delta-E=       -0.000000709839 Rises=F Damp=F
 DIIS: error= 1.04D-04 at cycle 101 NSaved=   3.
 NSaved= 3 IEnMin= 3 EnMin= -75.7345982815945     IErMin= 3 ErrMin= 1.04D-04
 ErrMax= 1.04D-04  0.00D+00 EMaxC= 1.00D-01 BMatC= 7.88D-08 BMatP= 7.85D-08
 IDIUse=3 WtCom= 9.99D-01 WtEn= 1.04D-03
 Large coefficients: NSaved=  3 BigCof=  242.53 CofMax=   10.00 Det=-1.20D-12
 Inversion failed.  Reducing to  2 matrices.
 Coeff-Com:  0.846D+00 0.154D+00
 Coeff-En:   0.000D+00 0.100D+01
 Coeff:      0.845D+00 0.155D+00
 Gap=     0.109 Goal=   None    Shift=    0.000
 RMSDP=1.02D-05 MaxDP=5.12D-05 DE=-7.10D-07 OVMax= 9.82D-05

 Cycle 102  Pass 1  IDiag  1:
 E= -75.7345981716511     Delta-E=        0.000000109943 Rises=F Damp=F
 DIIS: error= 1.03D-04 at cycle 102 NSaved=   3.
 NSaved= 3 IEnMin= 2 EnMin= -75.7345982815945     IErMin= 3 ErrMin= 1.03D-04
 ErrMax= 1.03D-04  0.00D+00 EMaxC= 1.00D-01 BMatC= 7.85D-08 BMatP= 7.85D-08
 IDIUse=3 WtCom= 9.99D-01 WtEn= 1.03D-03
 Large coefficients: NSaved=  3 BigCof=  375.75 CofMax=   10.00 Det=-4.99D-13
 Inversion failed.  Reducing to  2 matrices.
 Coeff-Com:  0.428D+00 0.572D+00
 Coeff-En:   0.000D+00 0.100D+01
 Coeff:      0.427D+00 0.573D+00
 Gap=     0.109 Goal=   None    Shift=    0.000
 RMSDP=3.73D-05 MaxDP=1.96D-04 DE= 1.10D-07 OVMax= 4.78D-04

 Cycle 103  Pass 1  IDiag  1:
 E= -75.7345987097739     Delta-E=       -0.000000538123 Rises=F Damp=F
 DIIS: error= 1.03D-04 at cycle 103 NSaved=   3.
 NSaved= 3 IEnMin= 3 EnMin= -75.7345987097739     IErMin= 3 ErrMin= 1.03D-04
 ErrMax= 1.03D-04  0.00D+00 EMaxC= 1.00D-01 BMatC= 7.79D-08 BMatP= 7.85D-08
 IDIUse=3 WtCom= 9.99D-01 WtEn= 1.03D-03
 Large coefficients: NSaved=  3 BigCof=  527.79 CofMax=   10.00 Det=-7.32D-13
 Inversion failed.  Reducing to  2 matrices.
 Coeff-Com:  0.996D-01 0.900D+00
 Coeff-En:   0.000D+00 0.100D+01
 Coeff:      0.995D-01 0.901D+00
 Gap=     0.109 Goal=   None    Shift=    0.000
 RMSDP=3.01D-05 MaxDP=1.59D-04 DE=-5.38D-07 OVMax= 3.88D-04

 Cycle 104  Pass 1  IDiag  1:
 E= -75.7345991439150     Delta-E=       -0.000000434141 Rises=F Damp=F
 DIIS: error= 1.03D-04 at cycle 104 NSaved=   3.
 NSaved= 3 IEnMin= 3 EnMin= -75.7345991439150     IErMin= 3 ErrMin= 1.03D-04
 ErrMax= 1.03D-04  0.00D+00 EMaxC= 1.00D-01 BMatC= 7.76D-08 BMatP= 7.79D-08
 IDIUse=3 WtCom= 9.99D-01 WtEn= 1.03D-03
 Large coefficients: NSaved=  3 BigCof=  338.85 CofMax=   10.00 Det=-1.99D-12
 Inversion failed.  Reducing to  2 matrices.
 Coeff-Com: -0.555D-01 0.106D+01
 Coeff-En:   0.000D+00 0.100D+01
 Coeff:     -0.554D-01 0.106D+01
 Gap=     0.109 Goal=   None    Shift=    0.000
 RMSDP=3.59D-05 MaxDP=1.87D-04 DE=-4.34D-07 OVMax= 4.56D-04

 Cycle 105  Pass 1  IDiag  1:
 E= -75.7345996501083     Delta-E=       -0.000000506193 Rises=F Damp=F
 DIIS: error= 1.03D-04 at cycle 105 NSaved=   3.
 NSaved= 3 IEnMin= 3 EnMin= -75.7345996501083     IErMin= 2 ErrMin= 1.03D-04
 ErrMax= 1.03D-04  0.00D+00 EMaxC= 1.00D-01 BMatC= 7.85D-08 BMatP= 7.76D-08
 IDIUse=3 WtCom= 9.99D-01 WtEn= 1.03D-03
 Large coefficients: NSaved=  3 BigCof=  400.07 CofMax=   10.00 Det=-4.38D-13
 Inversion failed.  Reducing to  2 matrices.
 Coeff-Com:  0.754D+00 0.246D+00
 Coeff-En:   0.000D+00 0.100D+01
 Coeff:      0.753D+00 0.247D+00
 Gap=     0.109 Goal=   None    Shift=    0.000
 RMSDP=8.69D-06 MaxDP=3.81D-05 DE=-5.06D-07 OVMax= 9.12D-05

 Cycle 106  Pass 1  IDiag  1:
 E= -75.7345997557089     Delta-E=       -0.000000105601 Rises=F Damp=F
 DIIS: error= 1.03D-04 at cycle 106 NSaved=   3.
 NSaved= 3 IEnMin= 3 EnMin= -75.7345997557089     IErMin= 3 ErrMin= 1.03D-04
 ErrMax= 1.03D-04  0.00D+00 EMaxC= 1.00D-01 BMatC= 7.72D-08 BMatP= 7.76D-08
 IDIUse=3 WtCom= 9.99D-01 WtEn= 1.03D-03
 Large coefficients: NSaved=  3 BigCof=  462.77 CofMax=   10.00 Det=-4.57D-13
 Inversion failed.  Reducing to  2 matrices.
 Coeff-Com: -0.439D-02 0.100D+01
 Coeff-En:   0.000D+00 0.100D+01
 Coeff:     -0.439D-02 0.100D+01
 Gap=     0.109 Goal=   None    Shift=    0.000
 RMSDP=3.37D-05 MaxDP=1.78D-04 DE=-1.06D-07 OVMax= 4.34D-04

 Cycle 107  Pass 1  IDiag  1:
 E= -75.7346002395597     Delta-E=       -0.000000483851 Rises=F Damp=F
 DIIS: error= 1.03D-04 at cycle 107 NSaved=   3.
 NSaved= 3 IEnMin= 3 EnMin= -75.7346002395597     IErMin= 3 ErrMin= 1.03D-04
 ErrMax= 1.03D-04  0.00D+00 EMaxC= 1.00D-01 BMatC= 7.71D-08 BMatP= 7.72D-08
 IDIUse=3 WtCom= 9.99D-01 WtEn= 1.03D-03
 Large coefficients: NSaved=  3 BigCof=  471.17 CofMax=   10.00 Det=-7.89D-13
 Inversion failed.  Reducing to  2 matrices.
 Coeff-Com:  0.182D+00 0.818D+00
 Coeff-En:   0.000D+00 0.100D+01
 Coeff:      0.182D+00 0.818D+00
 Gap=     0.109 Goal=   None    Shift=    0.000
 RMSDP=2.78D-05 MaxDP=1.46D-04 DE=-4.84D-07 OVMax= 3.55D-04

 Cycle 108  Pass 1  IDiag  1:
 E= -75.7346006320354     Delta-E=       -0.000000392476 Rises=F Damp=F
 DIIS: error= 1.03D-04 at cycle 108 NSaved=   3.
 NSaved= 3 IEnMin= 3 EnMin= -75.7346006320354     IErMin= 3 ErrMin= 1.03D-04
 ErrMax= 1.03D-04  0.00D+00 EMaxC= 1.00D-01 BMatC= 7.72D-08 BMatP= 7.71D-08
 IDIUse=3 WtCom= 9.99D-01 WtEn= 1.03D-03
 Large coefficients: NSaved=  3 BigCof=  386.76 CofMax=   10.00 Det=-4.65D-13
 Inversion failed.  Reducing to  2 matrices.
 Coeff-Com:  0.549D+00 0.451D+00
 Coeff-En:   0.000D+00 0.100D+01
 Coeff:      0.548D+00 0.452D+00
 Gap=     0.109 Goal=   None    Shift=    0.000
 RMSDP=1.95D-05 MaxDP=9.79D-05 DE=-3.92D-07 OVMax= 2.38D-04

 Cycle 109  Pass 1  IDiag  1:
 E= -75.7346008983890     Delta-E=       -0.000000266354 Rises=F Damp=F
 DIIS: error= 1.03D-04 at cycle 109 NSaved=   3.
 NSaved= 3 IEnMin= 3 EnMin= -75.7346008983890     IErMin= 2 ErrMin= 1.03D-04
 ErrMax= 1.03D-04  0.00D+00 EMaxC= 1.00D-01 BMatC= 7.70D-08 BMatP= 7.71D-08
 IDIUse=3 WtCom= 9.99D-01 WtEn= 1.03D-03
 Large coefficients: NSaved=  3 BigCof=  399.37 CofMax=   10.00 Det=-4.36D-13
 Inversion failed.  Reducing to  2 matrices.
 Coeff-Com:  0.433D+00 0.567D+00
 Coeff-En:   0.000D+00 0.100D+01
 Coeff:      0.433D+00 0.567D+00
 Gap=     0.109 Goal=   None    Shift=    0.000
 RMSDP=2.55D-05 MaxDP=1.35D-04 DE=-2.66D-07 OVMax= 3.29D-04

 Cycle 110  Pass 1  IDiag  1:
 E= -75.7346012648974     Delta-E=       -0.000000366508 Rises=F Damp=F
 DIIS: error= 1.03D-04 at cycle 110 NSaved=   3.
 NSaved= 3 IEnMin= 3 EnMin= -75.7346012648974     IErMin= 3 ErrMin= 1.03D-04
 ErrMax= 1.03D-04  0.00D+00 EMaxC= 1.00D-01 BMatC= 7.63D-08 BMatP= 7.70D-08
 IDIUse=3 WtCom= 9.99D-01 WtEn= 1.03D-03
 Large coefficients: NSaved=  3 BigCof=  526.74 CofMax=   10.00 Det=-6.30D-13
 Inversion failed.  Reducing to  2 matrices.
 Coeff-Com: -0.697D+00 0.170D+01
 Coeff-En:   0.000D+00 0.100D+01
 Coeff:     -0.696D+00 0.170D+01
 Gap=     0.109 Goal=   None    Shift=    0.000
 RMSDP=5.12D-05 MaxDP=2.71D-04 DE=-3.67D-07 OVMax= 6.60D-04

 Cycle 111  Pass 1  IDiag  1:
 E= -75.7346019934194     Delta-E=       -0.000000728522 Rises=F Damp=F
 DIIS: error= 1.02D-04 at cycle 111 NSaved=   3.
 NSaved= 3 IEnMin= 3 EnMin= -75.7346019934194     IErMin= 3 ErrMin= 1.02D-04
 ErrMax= 1.02D-04  0.00D+00 EMaxC= 1.00D-01 BMatC= 7.69D-08 BMatP= 7.63D-08
 IDIUse=3 WtCom= 9.99D-01 WtEn= 1.02D-03
 Large coefficients: NSaved=  3 BigCof=  301.98 CofMax=   10.00 Det=-7.59D-13
 Inversion failed.  Reducing to  2 matrices.
 Coeff-Com:  0.870D+00 0.130D+00
 Coeff-En:   0.000D+00 0.100D+01
 Coeff:      0.870D+00 0.130D+00
 Gap=     0.109 Goal=   None    Shift=    0.000
 RMSDP=1.29D-05 MaxDP=5.84D-05 DE=-7.29D-07 OVMax= 1.43D-04

 Cycle 112  Pass 1  IDiag  1:
 E= -75.7346018373542     Delta-E=        0.000000156065 Rises=F Damp=F
 DIIS: error= 1.02D-04 at cycle 112 NSaved=   3.
 NSaved= 3 IEnMin= 2 EnMin= -75.7346019934194     IErMin= 3 ErrMin= 1.02D-04
 ErrMax= 1.02D-04  0.00D+00 EMaxC= 1.00D-01 BMatC= 7.62D-08 BMatP= 7.63D-08
 IDIUse=3 WtCom= 9.99D-01 WtEn= 1.02D-03
 Large coefficients: NSaved=  3 BigCof=  378.22 CofMax=   10.00 Det=-4.82D-13
 Inversion failed.  Reducing to  2 matrices.
 Coeff-Com:  0.349D+00 0.651D+00
 Coeff-En:   0.000D+00 0.100D+01
 Coeff:      0.349D+00 0.651D+00
 Gap=     0.109 Goal=   None    Shift=    0.000
 RMSDP=3.73D-05 MaxDP=1.97D-04 DE= 1.56D-07 OVMax= 4.81D-04

 Cycle 113  Pass 1  IDiag  1:
 E= -75.7346023696701     Delta-E=       -0.000000532316 Rises=F Damp=F
 DIIS: error= 1.02D-04 at cycle 113 NSaved=   3.
 NSaved= 3 IEnMin= 3 EnMin= -75.7346023696701     IErMin= 3 ErrMin= 1.02D-04
 ErrMax= 1.02D-04  0.00D+00 EMaxC= 1.00D-01 BMatC= 7.57D-08 BMatP= 7.62D-08
 IDIUse=3 WtCom= 9.99D-01 WtEn= 1.02D-03
 Large coefficients: NSaved=  3 BigCof=  532.66 CofMax=   10.00 Det=-9.03D-13
 Inversion failed.  Reducing to  2 matrices.
 Coeff-Com:  0.763D-02 0.992D+00
 Coeff-En:   0.000D+00 0.100D+01
 Coeff:      0.762D-02 0.992D+00
 Gap=     0.109 Goal=   None    Shift=    0.000
 RMSDP=3.30D-05 MaxDP=1.75D-04 DE=-5.32D-07 OVMax= 4.27D-04

 Cycle 114  Pass 1  IDiag  1:
 E= -75.7346028394239     Delta-E=       -0.000000469754 Rises=F Damp=F
 DIIS: error= 1.02D-04 at cycle 114 NSaved=   3.
 NSaved= 3 IEnMin= 3 EnMin= -75.7346028394239     IErMin= 3 ErrMin= 1.02D-04
 ErrMax= 1.02D-04  0.00D+00 EMaxC= 1.00D-01 BMatC= 7.56D-08 BMatP= 7.57D-08
 IDIUse=3 WtCom= 9.99D-01 WtEn= 1.02D-03
 Large coefficients: NSaved=  3 BigCof=  262.67 CofMax=   10.00 Det=-1.39D-12
 Inversion failed.  Reducing to  2 matrices.
 Coeff-Com:  0.242D+00 0.758D+00
 Coeff-En:   0.000D+00 0.100D+01
 Coeff:      0.242D+00 0.758D+00
 Gap=     0.109 Goal=   None    Shift=    0.000
 RMSDP=2.61D-05 MaxDP=1.34D-04 DE=-4.70D-07 OVMax= 3.26D-04

 Cycle 115  Pass 1  IDiag  1:
 E= -75.7346031962778     Delta-E=       -0.000000356854 Rises=F Damp=F
 DIIS: error= 1.02D-04 at cycle 115 NSaved=   3.
 NSaved= 3 IEnMin= 3 EnMin= -75.7346031962778     IErMin= 2 ErrMin= 1.02D-04
 ErrMax= 1.02D-04  0.00D+00 EMaxC= 1.00D-01 BMatC= 7.63D-08 BMatP= 7.56D-08
 IDIUse=3 WtCom= 9.99D-01 WtEn= 1.02D-03
 Large coefficients: NSaved=  3 BigCof=  387.53 CofMax=   10.00 Det=-4.57D-13
 Inversion failed.  Reducing to  2 matrices.
 Coeff-Com:  0.685D+00 0.315D+00
 Coeff-En:   0.000D+00 0.100D+01
 Coeff:      0.685D+00 0.315D+00
 Gap=     0.109 Goal=   None    Shift=    0.000
 RMSDP=1.64D-05 MaxDP=8.47D-05 DE=-3.57D-07 OVMax= 2.06D-04

 Cycle 116  Pass 1  IDiag  1:
 E= -75.7346034259341     Delta-E=       -0.000000229656 Rises=F Damp=F
 DIIS: error= 1.02D-04 at cycle 116 NSaved=   3.
 NSaved= 3 IEnMin= 3 EnMin= -75.7346034259341     IErMin= 3 ErrMin= 1.02D-04
 ErrMax= 1.02D-04  0.00D+00 EMaxC= 1.00D-01 BMatC= 7.51D-08 BMatP= 7.56D-08
 IDIUse=3 WtCom= 9.99D-01 WtEn= 1.02D-03
 Large coefficients: NSaved=  3 BigCof=  511.57 CofMax=   10.00 Det=-5.69D-13
 Inversion failed.  Reducing to  2 matrices.
 Coeff-Com: -0.156D+00 0.116D+01
 Coeff-En:   0.000D+00 0.100D+01
 Coeff:     -0.156D+00 0.116D+01
 Gap=     0.109 Goal=   None    Shift=    0.000
 RMSDP=3.57D-05 MaxDP=1.89D-04 DE=-2.30D-07 OVMax= 4.60D-04

 Cycle 117  Pass 1  IDiag  1:
 E= -75.7346039309842     Delta-E=       -0.000000505050 Rises=F Damp=F
 DIIS: error= 1.02D-04 at cycle 117 NSaved=   3.
 NSaved= 3 IEnMin= 3 EnMin= -75.7346039309842     IErMin= 3 ErrMin= 1.02D-04
 ErrMax= 1.02D-04  0.00D+00 EMaxC= 1.00D-01 BMatC= 7.51D-08 BMatP= 7.51D-08
 IDIUse=3 WtCom= 9.99D-01 WtEn= 1.02D-03
 Large coefficients: NSaved=  3 BigCof=  391.24 CofMax=   10.00 Det=-1.58D-12
 Inversion failed.  Reducing to  2 matrices.
 Coeff-Com:  0.463D+00 0.537D+00
 Coeff-En:   0.000D+00 0.100D+01
 Coeff:      0.462D+00 0.538D+00
 Gap=     0.109 Goal=   None    Shift=    0.000
 RMSDP=1.75D-05 MaxDP=8.86D-05 DE=-5.05D-07 OVMax= 2.15D-04

 Cycle 118  Pass 1  IDiag  1:
 E= -75.7346041654830     Delta-E=       -0.000000234499 Rises=F Damp=F
 DIIS: error= 1.01D-04 at cycle 118 NSaved=   3.
 NSaved= 3 IEnMin= 3 EnMin= -75.7346041654830     IErMin= 3 ErrMin= 1.01D-04
 ErrMax= 1.01D-04  0.00D+00 EMaxC= 1.00D-01 BMatC= 7.52D-08 BMatP= 7.51D-08
 IDIUse=3 WtCom= 9.99D-01 WtEn= 1.01D-03
 Large coefficients: NSaved=  3 BigCof=  404.25 CofMax=   10.00 Det=-4.16D-13
 Inversion failed.  Reducing to  2 matrices.
 Coeff-Com:  0.529D+00 0.471D+00
 Coeff-En:   0.000D+00 0.100D+01
 Coeff:      0.528D+00 0.472D+00
 Gap=     0.109 Goal=   None    Shift=    0.000
 RMSDP=2.49D-05 MaxDP=1.29D-04 DE=-2.34D-07 OVMax= 3.14D-04

 Cycle 119  Pass 1  IDiag  1:
 E= -75.7346045109529     Delta-E=       -0.000000345470 Rises=F Damp=F
 DIIS: error= 1.02D-04 at cycle 119 NSaved=   3.
 NSaved= 3 IEnMin= 3 EnMin= -75.7346045109529     IErMin= 2 ErrMin= 1.01D-04
 ErrMax= 1.02D-04  0.00D+00 EMaxC= 1.00D-01 BMatC= 7.47D-08 BMatP= 7.51D-08
 IDIUse=3 WtCom= 9.99D-01 WtEn= 1.01D-03
 Large coefficients: NSaved=  3 BigCof=  417.22 CofMax=   10.00 Det=-4.18D-13
 Inversion failed.  Reducing to  2 matrices.
 Coeff-Com:  0.340D+00 0.660D+00
 Coeff-En:   0.000D+00 0.100D+01
 Coeff:      0.339D+00 0.661D+00
 Gap=     0.109 Goal=   None    Shift=    0.000
 RMSDP=2.48D-05 MaxDP=1.32D-04 DE=-3.45D-07 OVMax= 3.21D-04

 Cycle 120  Pass 1  IDiag  1:
 E= -75.7346048621333     Delta-E=       -0.000000351180 Rises=F Damp=F
 DIIS: error= 1.01D-04 at cycle 120 NSaved=   3.
 NSaved= 3 IEnMin= 3 EnMin= -75.7346048621333     IErMin= 3 ErrMin= 1.01D-04
 ErrMax= 1.01D-04  0.00D+00 EMaxC= 1.00D-01 BMatC= 7.43D-08 BMatP= 7.47D-08
 IDIUse=3 WtCom= 9.99D-01 WtEn= 1.01D-03
 Large coefficients: NSaved=  3 BigCof=  500.25 CofMax=   10.00 Det=-6.72D-13
 Inversion failed.  Reducing to  2 matrices.
 Coeff-Com: -0.643D+00 0.164D+01
 Coeff-En:   0.000D+00 0.100D+01
 Coeff:     -0.643D+00 0.164D+01
 Gap=     0.109 Goal=   None    Shift=    0.000
 RMSDP=4.91D-05 MaxDP=2.60D-04 DE=-3.51D-07 OVMax= 6.32D-04

 Cycle 121  Pass 1  IDiag  1:
 E= -75.7346055484962     Delta-E=       -0.000000686363 Rises=F Damp=F
 DIIS: error= 1.01D-04 at cycle 121 NSaved=   3.
 NSaved= 3 IEnMin= 3 EnMin= -75.7346055484962     IErMin= 3 ErrMin= 1.01D-04
 ErrMax= 1.01D-04  0.00D+00 EMaxC= 1.00D-01 BMatC= 7.50D-08 BMatP= 7.43D-08
 IDIUse=3 WtCom= 9.99D-01 WtEn= 1.01D-03
 Large coefficients: NSaved=  3 BigCof=  361.23 CofMax=   10.00 Det=-5.18D-13
 Inversion failed.  Reducing to  2 matrices.
 Coeff-Com:  0.850D+00 0.150D+00
 Coeff-En:   0.000D+00 0.100D+01
 Coeff:      0.849D+00 0.151D+00
 Gap=     0.109 Goal=   None    Shift=    0.000
 RMSDP=1.06D-05 MaxDP=4.71D-05 DE=-6.86D-07 OVMax= 1.10D-04

 Cycle 122  Pass 1  IDiag  1:
 E= -75.7346054309292     Delta-E=        0.000000117567 Rises=F Damp=F
 DIIS: error= 1.01D-04 at cycle 122 NSaved=   3.
 NSaved= 3 IEnMin= 2 EnMin= -75.7346055484962     IErMin= 3 ErrMin= 1.01D-04
 ErrMax= 1.01D-04  0.00D+00 EMaxC= 1.00D-01 BMatC= 7.41D-08 BMatP= 7.43D-08
 IDIUse=3 WtCom= 9.99D-01 WtEn= 1.01D-03
 Large coefficients: NSaved=  3 BigCof=  392.26 CofMax=   10.00 Det=-4.38D-13
 Inversion failed.  Reducing to  2 matrices.
 Coeff-Com:  0.257D+00 0.743D+00
 Coeff-En:   0.000D+00 0.100D+01
 Coeff:      0.257D+00 0.743D+00
 Gap=     0.109 Goal=   None    Shift=    0.000
 RMSDP=3.52D-05 MaxDP=1.87D-04 DE= 1.18D-07 OVMax= 4.54D-04

 Cycle 123  Pass 1  IDiag  1:
 E= -75.7346059257798     Delta-E=       -0.000000494851 Rises=F Damp=F
 DIIS: error= 1.01D-04 at cycle 123 NSaved=   3.
 NSaved= 3 IEnMin= 3 EnMin= -75.7346059257798     IErMin= 3 ErrMin= 1.01D-04
 ErrMax= 1.01D-04  0.00D+00 EMaxC= 1.00D-01 BMatC= 7.37D-08 BMatP= 7.41D-08
 IDIUse=3 WtCom= 9.99D-01 WtEn= 1.01D-03
 Large coefficients: NSaved=  3 BigCof=  530.84 CofMax=   10.00 Det=-6.87D-13
 Inversion failed.  Reducing to  2 matrices.
 Coeff-Com: -0.363D-01 0.104D+01
 Coeff-En:   0.000D+00 0.100D+01
 Coeff:     -0.363D-01 0.104D+01
 Gap=     0.109 Goal=   None    Shift=    0.000
 RMSDP=3.42D-05 MaxDP=1.82D-04 DE=-4.95D-07 OVMax= 4.41D-04

 Cycle 124  Pass 1  IDiag  1:
 E= -75.7346064042660     Delta-E=       -0.000000478486 Rises=F Damp=F
 DIIS: error= 1.01D-04 at cycle 124 NSaved=   3.
 NSaved= 3 IEnMin= 3 EnMin= -75.7346064042660     IErMin= 3 ErrMin= 1.01D-04
 ErrMax= 1.01D-04  0.00D+00 EMaxC= 1.00D-01 BMatC= 7.36D-08 BMatP= 7.37D-08
 IDIUse=3 WtCom= 9.99D-01 WtEn= 1.01D-03
 Large coefficients: NSaved=  3 BigCof=  272.15 CofMax=   10.00 Det=-9.05D-13
 Inversion failed.  Reducing to  2 matrices.
 Coeff-Com:  0.418D+00 0.582D+00
 Coeff-En:   0.000D+00 0.100D+01
 Coeff:      0.417D+00 0.583D+00
 Gap=     0.109 Goal=   None    Shift=    0.000
 RMSDP=1.97D-05 MaxDP=9.86D-05 DE=-4.78D-07 OVMax= 2.40D-04

 Cycle 125  Pass 1  IDiag  1:
 E= -75.7346066635030     Delta-E=       -0.000000259237 Rises=F Damp=F
 DIIS: error= 1.01D-04 at cycle 125 NSaved=   3.
 NSaved= 3 IEnMin= 3 EnMin= -75.7346066635030     IErMin= 2 ErrMin= 1.01D-04
 ErrMax= 1.01D-04  0.00D+00 EMaxC= 1.00D-01 BMatC= 7.41D-08 BMatP= 7.36D-08
 IDIUse=3 WtCom= 9.99D-01 WtEn= 1.01D-03
 Large coefficients: NSaved=  3 BigCof=  382.36 CofMax=   10.00 Det=-4.58D-13
 Inversion failed.  Reducing to  2 matrices.
 Coeff-Com:  0.612D+00 0.388D+00
 Coeff-En:   0.000D+00 0.100D+01
 Coeff:      0.611D+00 0.389D+00
 Gap=     0.109 Goal=   None    Shift=    0.000
 RMSDP=2.16D-05 MaxDP=1.14D-04 DE=-2.59D-07 OVMax= 2.77D-04

 Cycle 126  Pass 1  IDiag  1:
 E= -75.7346069664491     Delta-E=       -0.000000302946 Rises=F Damp=F
 DIIS: error= 1.01D-04 at cycle 126 NSaved=   3.
 NSaved= 3 IEnMin= 3 EnMin= -75.7346069664491     IErMin= 3 ErrMin= 1.01D-04
 ErrMax= 1.01D-04  0.00D+00 EMaxC= 1.00D-01 BMatC= 7.31D-08 BMatP= 7.36D-08
 IDIUse=3 WtCom= 9.99D-01 WtEn= 1.01D-03
 Large coefficients: NSaved=  3 BigCof=  527.76 CofMax=   10.00 Det=-7.91D-13
 Inversion failed.  Reducing to  2 matrices.
 Coeff-Com: -0.321D+00 0.132D+01
 Coeff-En:   0.000D+00 0.100D+01
 Coeff:     -0.321D+00 0.132D+01
 Gap=     0.109 Goal=   None    Shift=    0.000
 RMSDP=3.96D-05 MaxDP=2.11D-04 DE=-3.03D-07 OVMax= 5.12D-04

 Cycle 127  Pass 1  IDiag  1:
 E= -75.7346075192385     Delta-E=       -0.000000552789 Rises=F Damp=F
 DIIS: error= 1.01D-04 at cycle 127 NSaved=   3.
 NSaved= 3 IEnMin= 3 EnMin= -75.7346075192385     IErMin= 3 ErrMin= 1.01D-04
 ErrMax= 1.01D-04  0.00D+00 EMaxC= 1.00D-01 BMatC= 7.32D-08 BMatP= 7.31D-08
 IDIUse=3 WtCom= 9.99D-01 WtEn= 1.01D-03
 Large coefficients: NSaved=  3 BigCof=  308.09 CofMax=   10.00 Det=-1.54D-12
 Inversion failed.  Reducing to  2 matrices.
 Coeff-Com:  0.682D+00 0.318D+00
 Coeff-En:   0.000D+00 0.100D+01
 Coeff:      0.681D+00 0.319D+00
 Gap=     0.109 Goal=   None    Shift=    0.000
 RMSDP=8.21D-06 MaxDP=4.40D-05 DE=-5.53D-07 OVMax= 8.18D-05

 Cycle 128  Pass 1  IDiag  1:
 E= -75.7346075985774     Delta-E=       -0.000000079339 Rises=F Damp=F
 DIIS: error= 1.00D-04 at cycle 128 NSaved=   3.
 NSaved= 3 IEnMin= 3 EnMin= -75.7346075985774     IErMin= 3 ErrMin= 1.00D-04
 ErrMax= 1.00D-04  0.00D+00 EMaxC= 1.00D-01 BMatC= 7.31D-08 BMatP= 7.31D-08
 IDIUse=3 WtCom= 9.99D-01 WtEn= 1.00D-03
 Large coefficients: NSaved=  3 BigCof=  397.51 CofMax=   10.00 Det=-4.21D-13
 Inversion failed.  Reducing to  2 matrices.
 Coeff-Com:  0.486D+00 0.514D+00
 Coeff-En:   0.000D+00 0.100D+01
 Coeff:      0.486D+00 0.514D+00
 Gap=     0.109 Goal=   None    Shift=    0.000
 RMSDP=3.02D-05 MaxDP=1.59D-04 DE=-7.93D-08 OVMax= 3.86D-04

 >>>>>>>>>> Convergence criterion not met.
 SCF Done:  E(RHF) =  -75.7346075986     A.U. after  129 cycles
            NFock=128  Conv=0.30D-04     -V/T= 2.0053
 KE= 7.533586469626D+01 PE=-1.847912594747D+02 EE= 3.136110922706D+01
 Convergence failure -- run terminated.
 Error termination via Lnk1e in /home/eliot/software/g09E01/l502.exe at Tue Nov 13 14:32:50 2018.
 Job cpu time:       0 days  0 hours  0 minutes  1.5 seconds.
 File lengths (MBytes):  RWF=      5 Int=      0 D2E=      0 Chk=      1 Scr=      1
