 Entering Gaussian System, Link 0=/home/eliot/software/g09E01/g09
 Initial command:
 /home/eliot/software/g09E01/l1.exe "/tmp/Gau-10043.inp" -scrdir="/tmp/"
 Entering Link 1 = /home/eliot/software/g09E01/l1.exe PID=     10045.
  
 Copyright (c) 1988,1990,1992,1993,1995,1998,2003,2009,2015,
            Gaussian, Inc.  All Rights Reserved.
  
 This is part of the Gaussian(R) 09 program.  It is based on
 the Gaussian(R) 03 system (copyright 2003, Gaussian, Inc.),
 the Gaussian(R) 98 system (copyright 1998, Gaussian, Inc.),
 the Gaussian(R) 94 system (copyright 1995, Gaussian, Inc.),
 the Gaussian 92(TM) system (copyright 1992, Gaussian, Inc.),
 the Gaussian 90(TM) system (copyright 1990, Gaussian, Inc.),
 the Gaussian 88(TM) system (copyright 1988, Gaussian, Inc.),
 the Gaussian 86(TM) system (copyright 1986, Carnegie Mellon
 University), and the Gaussian 82(TM) system (copyright 1983,
 Carnegie Mellon University). Gaussian is a federally registered
 trademark of Gaussian, Inc.
  
 This software contains proprietary and confidential information,
 including trade secrets, belonging to Gaussian, Inc.
  
 This software is provided under written license and may be
 used, copied, transmitted, or stored only in accord with that
 written license.
  
 The following legend is applicable only to US Government
 contracts under FAR:
  
                    RESTRICTED RIGHTS LEGEND
  
 Use, reproduction and disclosure by the US Government is
 subject to restrictions as set forth in subparagraphs (a)
 and (c) of the Commercial Computer Software - Restricted
 Rights clause in FAR 52.227-19.
  
 Gaussian, Inc.
 340 Quinnipiac St., Bldg. 40, Wallingford CT 06492
  
  
 ---------------------------------------------------------------
 Warning -- This program may not be used in any manner that
 competes with the business of Gaussian, Inc. or will provide
 assistance to any competitor of Gaussian, Inc.  The licensee
 of this program is prohibited from giving any competitor of
 Gaussian, Inc. access to this program.  By using this program,
 the user acknowledges that Gaussian, Inc. is engaged in the
 business of creating and licensing software in the field of
 computational chemistry and represents and warrants to the
 licensee that it is not a competitor of Gaussian, Inc. and that
 it will not use this program in any manner prohibited above.
 ---------------------------------------------------------------
  

 Cite this work as:
 Gaussian 09, Revision E.01,
 M. J. Frisch, G. W. Trucks, H. B. Schlegel, G. E. Scuseria, 
 M. A. Robb, J. R. Cheeseman, G. Scalmani, V. Barone, B. Mennucci, 
 G. A. Petersson, H. Nakatsuji, M. Caricato, X. Li, H. P. Hratchian, 
 A. F. Izmaylov, J. Bloino, G. Zheng, J. L. Sonnenberg, M. Hada, 
 M. Ehara, K. Toyota, R. Fukuda, J. Hasegawa, M. Ishida, T. Nakajima, 
 Y. Honda, O. Kitao, H. Nakai, T. Vreven, J. A. Montgomery, Jr., 
 J. E. Peralta, F. Ogliaro, M. Bearpark, J. J. Heyd, E. Brothers, 
 K. N. Kudin, V. N. Staroverov, T. Keith, R. Kobayashi, J. Normand, 
 K. Raghavachari, A. Rendell, J. C. Burant, S. S. Iyengar, J. Tomasi, 
 M. Cossi, N. Rega, J. M. Millam, M. Klene, J. E. Knox, J. B. Cross, 
 V. Bakken, C. Adamo, J. Jaramillo, R. Gomperts, R. E. Stratmann, 
 O. Yazyev, A. J. Austin, R. Cammi, C. Pomelli, J. W. Ochterski, 
 R. L. Martin, K. Morokuma, V. G. Zakrzewski, G. A. Voth, 
 P. Salvador, J. J. Dannenberg, S. Dapprich, A. D. Daniels, 
 O. Farkas, J. B. Foresman, J. V. Ortiz, J. Cioslowski, 
 and D. J. Fox, Gaussian, Inc., Wallingford CT, 2013.
 
 ******************************************
 Gaussian 09:  ES64L-G09RevE.01 30-Nov-2015
                18-Oct-2018 
 ******************************************
 %nproc=1
 Will use up to    1 processors via shared memory.
 %mem=4GB
 %Chk=gradients-qmjob.chk
 ----------------------------------------------------------------------
 #P force hf/sto-3g Charge NoSymm Prop=(Grid,Read) punch=derivatives Gu
 ess=Read
 ----------------------------------------------------------------------
 1/10=7,18=10,28=-2,30=1,38=1,125=101/1,3;
 2/12=2,15=1,17=6,18=5,29=2,40=1/2;
 3/6=3,11=9,16=1,25=1,30=1,71=1,116=-2/1,2,3;
 4/5=1/1;
 5/5=2,38=6/2;
 6/7=2,8=2,9=2,10=2,15=133,28=1/1,2;
 7/7=1,16=-2,29=1,30=1/1,2,3,16;
 1/10=7,18=10,28=-2,30=1/3;
 99/10=4,12=1/99;
 Leave Link    1 at Thu Oct 18 12:43:39 2018, MaxMem=   536870912 cpu:         0.0
 (Enter /home/eliot/software/g09E01/l101.exe)
 -------------------
 Generated by Zonkey
 -------------------
 Symbolic Z-matrix:
 Charge =  0 Multiplicity = 1
 O                     1.39518  -0.13127   0.00121 
 H                     1.57987   0.44534  -0.76663 
 H                     1.58181   0.45515   0.75942 
 
 NAtoms=      3 NQM=        3 NQMF=       0 NMMI=      0 NMMIF=      0
                NMic=       0 NMicF=      0.
                    Isotopes and Nuclear Properties:
 (Nuclear quadrupole moments (NQMom) in fm**2, nuclear magnetic moments (NMagM)
  in nuclear magnetons)

  Atom         1           2           3
 IAtWgt=          16           1           1
 AtmWgt=  15.9949146   1.0078250   1.0078250
 NucSpn=           0           1           1
 AtZEff=   0.0000000   0.0000000   0.0000000
 NQMom=    0.0000000   0.0000000   0.0000000
 NMagM=    0.0000000   2.7928460   2.7928460
 AtZNuc=   8.0000000   1.0000000   1.0000000
 Background charge distribution read from input stream:
 Point Charges:
 XYZ=   -1.4731    0.0804   -0.0007 Q=   -0.8340 A=    0.0000 R=    0.0000 C=    0.0000
 XYZ=   -0.5508    0.0424    0.0009 Q=    0.4170 A=    0.0000 R=    0.0000 C=    0.0000
 XYZ=   -1.7769   -0.7930    0.0038 Q=    0.4170 A=    0.0000 R=    0.0000 C=    0.0000
 Pt Chg Charge=              0.0000 electrons
 Pt Chg Dipole moment (Debye):
    X=              1.2387    Y=             -1.8254    Z=              0.0124  Tot=              2.2060
 Pt Chg Quadrupole moment (Debye-Ang):
   XX=             -1.7609   YY=              1.2372   ZZ=              0.0000
   XY=              3.2499   XZ=             -0.0190   YZ=             -0.0058
 Pt Chg Traceless Quadrupole moment (Debye-Ang):
   XX=             -1.5863   YY=              1.4117   ZZ=              0.1746
   XY=              3.2499   XZ=             -0.0190   YZ=             -0.0058
 Pt Chg Octapole moment (Debye-Ang**2):
  XXX=              1.2329  YYY=             -1.0007  ZZZ=              0.0000  XYY=             -2.2019
  XXY=             -5.6880  XXZ=              0.0313  XZZ=             -0.0001  YZZ=              0.0000
  YYZ=              0.0049  XYZ=              0.0105
 Pt Chg Hexadecapole moment (Debye-Ang**3):
 XXXX=              1.2895 YYYY=              0.7918 ZZZZ=              0.0000 XXXY=              9.9265
 XXXZ=             -0.0529 YYYX=              1.7777 YYYZ=             -0.0038 ZZZX=              0.0000
 ZZZY=              0.0000 XXYY=              3.9218 XXZZ=              0.0001 YYZZ=              0.0000
 XXYZ=             -0.0187 YYXZ=             -0.0086 ZZXY=              0.0000
 Leave Link  101 at Thu Oct 18 12:43:39 2018, MaxMem=   536870912 cpu:         0.1
 (Enter /home/eliot/software/g09E01/l103.exe)

 GradGradGradGradGradGradGradGradGradGradGradGradGradGradGradGradGradGrad
 Berny optimization.
 Initialization pass.
 Trust Radius=3.00D-01 FncErr=1.00D-07 GrdErr=1.00D-07
 Number of steps in this run=      2 maximum allowed number of steps=      2.
 GradGradGradGradGradGradGradGradGradGradGradGradGradGradGradGradGradGrad

 Leave Link  103 at Thu Oct 18 12:43:39 2018, MaxMem=   536870912 cpu:         0.0
 (Enter /home/eliot/software/g09E01/l202.exe)
 ---------------------------------------------------------------------------------------------------
                            Z-MATRIX (ANGSTROMS AND DEGREES)
   CD    Cent   Atom    N1       Length/X        N2       Alpha/Y        N3        Beta/Z          J
 ---------------------------------------------------------------------------------------------------
      1      1  O        0   1.395183         -0.131269          0.001213
      2      2  H        0   1.579873          0.445345         -0.766632
      3      3  H        0   1.581814          0.455150          0.759419
 ---------------------------------------------------------------------------------------------------
                         Z-Matrix orientation:                         
 ---------------------------------------------------------------------
 Center     Atomic      Atomic             Coordinates (Angstroms)
 Number     Number       Type             X           Y           Z
 ---------------------------------------------------------------------
      1          8           0        1.395183   -0.131269    0.001213
      2          1           0        1.579873    0.445345   -0.766632
      3          1           0        1.581814    0.455150    0.759419
 ---------------------------------------------------------------------
                    Distance matrix (angstroms):
                    1          2          3
     1  O    0.000000
     2  H    0.977844   0.000000
     3  H    0.976521   1.526084   0.000000
 Symmetry turned off by external request.
 Stoichiometry    H2O
 Framework group  CS[SG(H2O)]
 Deg. of freedom     3
 Full point group                 CS      NOp   2
 Rotational constants (GHZ):    757.6068198    430.6298938    274.5649420
 Leave Link  202 at Thu Oct 18 12:43:39 2018, MaxMem=   536870912 cpu:         0.0
 (Enter /home/eliot/software/g09E01/l301.exe)
 Standard basis: STO-3G (5D, 7F)
 Ernie: Thresh=  0.10000D-02 Tol=  0.10000D-05 Strict=F.
     7 basis functions,    21 primitive gaussians,     7 cartesian basis functions
     5 alpha electrons        5 beta electrons
       nuclear repulsion energy         9.0112944777 Hartrees.
 IExCor=    0 DFT=F Ex=HF Corr=None ExCW=0 ScaHFX=  1.000000
 ScaDFX=  1.000000  1.000000  1.000000  1.000000 ScalE2=  1.000000  1.000000
 IRadAn=      0 IRanWt=     -1 IRanGd=            0 ICorTp=0 IEmpDi=  4
 NAtoms=    3 NActive=    3 NUniq=    3 SFac= 1.00D+00 NAtFMM=   60 NAOKFM=F Big=F
 Integral buffers will be    131072 words long.
 Raffenetti 1 integral format.
 Two-electron integral symmetry is turned off.
 Background charge distribution read from rwf.
 PtFMM for NChg=         6 BoxLen=    40.00 Levels= 0 LMax=20 SMax=     6.3 ICnFMM=     1:
 Self energy of the charges =        -0.3363746455 a.u.
 MM   energy of the charges =         0.0000000000 a.u.
 Nuclei-charges interaction =         0.2546527449 a.u.
 Nuclear repulsion after external point charges =        8.9295725771 Hartrees.
 Leave Link  301 at Thu Oct 18 12:43:39 2018, MaxMem=   536870912 cpu:         0.0
 (Enter /home/eliot/software/g09E01/l302.exe)
 NPDir=0 NMtPBC=     1 NCelOv=     1 NCel=       1 NClECP=     1 NCelD=      1
         NCelK=      1 NCelE2=     1 NClLst=     1 CellRange=     0.0.
 One-electron integrals computed using PRISM.
 NBasis=     7 RedAO= T EigKep=  3.55D-01  NBF=     7
 NBsUse=     7 1.00D-06 EigRej= -1.00D+00 NBFU=     7
 Leave Link  302 at Thu Oct 18 12:43:39 2018, MaxMem=   536870912 cpu:         0.1
 (Enter /home/eliot/software/g09E01/l303.exe)
 DipDrv:  MaxL=1.
 Leave Link  303 at Thu Oct 18 12:43:39 2018, MaxMem=   536870912 cpu:         0.0
 (Enter /home/eliot/software/g09E01/l401.exe)
 Initial guess from the checkpoint file:  "gradients-qmjob.chk"
 B after Tr=     0.000000    0.000000    0.000000
         Rot=    1.000000    0.000000    0.000000    0.000000 Ang=   0.00 deg.
 Guess basis will be translated and rotated to current coordinates.
 JPrj=2 DoOrth=T DoCkMO=T.
 Leave Link  401 at Thu Oct 18 12:43:39 2018, MaxMem=   536870912 cpu:         0.0
 (Enter /home/eliot/software/g09E01/l502.exe)
 Closed shell SCF:
 Using DIIS extrapolation, IDIIS=  1040.
 Two-electron integral symmetry not used.
 Keep R1 ints in memory in canonical form, NReq=822719.
 IVT=       20131 IEndB=       20131 NGot=   536870912 MDV=   536850376
 LenX=   536850376 LenY=   536849494
 Requested convergence on RMS density matrix=1.00D-08 within 128 cycles.
 Requested convergence on MAX density matrix=1.00D-06.
 Requested convergence on             energy=1.00D-06.
 No special actions if energy rises.
 FoFCou: FMM=F IPFlag=           0 FMFlag=           0 FMFlg1=           0
         NFxFlg=           0 DoJE=F BraDBF=F KetDBF=F FulRan=T
         wScrn=  0.000000 ICntrl=     600 IOpCl=  0 I1Cent=           0 NGrid=           0
         NMat0=    1 NMatS0=     28 NMatT0=    0 NMatD0=    1 NMtDS0=    0 NMtDT0=    0
 Symmetry not used in FoFCou.

 Cycle   1  Pass 1  IDiag  1:
 E= -75.3085899000145    
 DIIS: error= 7.32D-11 at cycle   1 NSaved=   1.
 NSaved= 1 IEnMin= 1 EnMin= -75.3085899000145     IErMin= 1 ErrMin= 7.32D-11
 ErrMax= 7.32D-11  0.00D+00 EMaxC= 1.00D-01 BMatC= 4.01D-20 BMatP= 4.01D-20
 IDIUse=1 WtCom= 1.00D+00 WtEn= 0.00D+00
 Coeff-Com:  0.100D+01
 Coeff:      0.100D+01
 Gap=     0.988 Goal=   None    Shift=    0.000
 Skip diagonalization as Alpha Fock matrix is already diagonal.
 RMSDP=0.00D+00 MaxDP=0.00D+00              OVMax= 0.00D+00

 SCF Done:  E(RHF) =  -75.3085899000     A.U. after    1 cycles
            NFock=  1  Conv=0.00D+00     -V/T= 2.0099
 KE= 7.456812189604D+01 PE=-1.969159729210D+02 EE= 3.810968854790D+01
 Leave Link  502 at Thu Oct 18 12:43:39 2018, MaxMem=   536870912 cpu:         0.0
 (Enter /home/eliot/software/g09E01/l601.exe)
 Copying SCF densities to generalized density rwf, IOpCl= 0 IROHF=0.

 **********************************************************************

            Population analysis using the SCF density.

 **********************************************************************

 Alpha  occ. eigenvalues --  -20.26411  -1.28210  -0.62424  -0.47778  -0.41600
 Alpha virt. eigenvalues --    0.57234   0.69556
          Condensed to atoms (all electrons):
               1          2          3
     1  O    7.842300   0.259541   0.259620
     2  H    0.259541   0.605400  -0.045422
     3  H    0.259620  -0.045422   0.604822
 Mulliken charges:
               1
     1  O   -0.361461
     2  H    0.180481
     3  H    0.180980
 Sum of Mulliken charges =   0.00000
 Mulliken charges with hydrogens summed into heavy atoms:
               1
     1  O    0.000000
 Electronic spatial extent (au):  <R**2>=             90.2047
 Charge=              0.0000 electrons
 Dipole moment (field-independent basis, Debye):
    X=              0.5365    Y=              1.6756    Z=             -0.0118  Tot=              1.7594
 Quadrupole moment (field-independent basis, Debye-Ang):
   XX=             -4.4989   YY=             -5.4677   ZZ=             -4.3550
   XY=              2.6121   XZ=             -0.0161   YZ=              0.0068
 Traceless Quadrupole moment (field-independent basis, Debye-Ang):
   XX=              0.2749   YY=             -0.6938   ZZ=              0.4189
   XY=              2.6121   XZ=             -0.0161   YZ=              0.0068
 Octapole moment (field-independent basis, Debye-Ang**2):
  XXX=            -22.6292  YYY=              0.4335  ZZZ=             -0.0155  XYY=             -7.7776
  XXY=              4.1536  XXZ=             -0.0228  XZZ=             -6.0610  YZZ=              0.6218
  YYZ=              0.0045  XYZ=              0.0112
 Hexadecapole moment (field-independent basis, Debye-Ang**3):
 XXXX=            -71.3929 YYYY=             -4.8907 ZZZZ=             -6.5684 XXXY=              6.4094
 XXXZ=             -0.0335 YYYX=              0.3903 YYYZ=              0.0003 ZZZX=             -0.0240
 ZZZY=             -0.0085 XXYY=            -12.4613 XXZZ=            -10.2107 YYZZ=             -1.7183
 XXYZ=              0.0166 YYXZ=              0.0080 ZZXY=              0.9169
 N-N= 8.929572577067D+00 E-N=-1.969159729210D+02  KE= 7.456812189604D+01
 No NMR shielding tensors so no spin-rotation constants.
 Leave Link  601 at Thu Oct 18 12:43:39 2018, MaxMem=   536870912 cpu:         0.1
 (Enter /home/eliot/software/g09E01/l602.exe)
 Did not find a floating point number as input
 Error termination via Lnk1e in /home/eliot/software/g09E01/l602.exe at Thu Oct 18 12:43:39 2018.
 Job cpu time:       0 days  0 hours  0 minutes  0.4 seconds.
 File lengths (MBytes):  RWF=      5 Int=      0 D2E=      0 Chk=      1 Scr=      1
